    3    3    1    1
  0.1593113E+03  0.3322260E-09  0.3322260E-09  0.5000000E-08  0.5000000E-15
  1.000000000000000E-004
  CAR 
 (MoSe2)2                                
     18    120     26
 
  0.0000000E+00  0.0000000E+00  0.0000000E+00  0.8333333E-02
    1      -18.199400   1.000000
    2      -18.199399   1.000000
    3      -17.257052   1.000000
    4      -17.257050   1.000000
    5       -9.420520   1.000000
    6       -9.420519   1.000000
    7       -6.253922   1.000000
    8       -6.253921   1.000000
    9       -6.221969   1.000000
   10       -6.221969   1.000000
   11       -5.841423   1.000000
   12       -5.841422   1.000000
   13       -5.343393   1.000000
   14       -5.343392   1.000000
   15       -5.149167   1.000000
   16       -5.149167   1.000000
   17       -4.317512   1.000000
   18       -4.317508   1.000000
   19       -1.369849   0.000000
   20       -1.359879   0.000000
   21       -1.111702   0.000000
   22       -1.107852   0.000000
   23       -1.099021   0.000000
   24       -0.945040   0.000000
   25       -0.652726   0.000000
   26        0.592068   0.000000
 
  0.8547000E-02  0.8547000E-02  0.0000000E+00  0.8333333E-02
    1      -18.196565   1.000000
    2      -18.196562   1.000000
    3      -17.255341   1.000000
    4      -17.255337   1.000000
    5       -9.416910   1.000000
    6       -9.416907   1.000000
    7       -6.257764   1.000000
    8       -6.257739   1.000000
    9       -6.223549   1.000000
   10       -6.223467   1.000000
   11       -5.854658   1.000000
   12       -5.854560   1.000000
   13       -5.340934   1.000000
   14       -5.339694   1.000000
   15       -5.148336   1.000000
   16       -5.147227   1.000000
   17       -4.318355   1.000000
   18       -4.318311   1.000000
   19       -1.373125   0.000000
   20       -1.372109   0.000000
   21       -1.121447   0.000000
   22       -1.118765   0.000000
   23       -1.110138   0.000000
   24       -1.079636   0.000000
   25       -0.907624   0.000000
   26        0.539875   0.000000
 
  0.1709400E-01  0.1709400E-01  0.0000000E+00  0.8333333E-02
    1      -18.188064   1.000000
    2      -18.188057   1.000000
    3      -17.250207   1.000000
    4      -17.250201   1.000000
    5       -9.406100   1.000000
    6       -9.406089   1.000000
    7       -6.275525   1.000000
    8       -6.275454   1.000000
    9       -6.222221   1.000000
   10       -6.221552   1.000000
   11       -5.891467   1.000000
   12       -5.890978   1.000000
   13       -5.340268   1.000000
   14       -5.331162   1.000000
   15       -5.145926   1.000000
   16       -5.137614   1.000000
   17       -4.320876   1.000000
   18       -4.320777   1.000000
   19       -1.383786   0.000000
   20       -1.379882   0.000000
   21       -1.152010   0.000000
   22       -1.136640   0.000000
   23       -1.117458   0.000000
   24       -1.099128   0.000000
   25       -0.921657   0.000000
   26       -0.224715   0.000000
 
  0.2564100E-01  0.2564100E-01  0.0000000E+00  0.8333333E-02
    1      -18.173931   1.000000
    2      -18.173912   1.000000
    3      -17.241681   1.000000
    4      -17.241672   1.000000
    5       -9.388202   1.000000
    6       -9.388169   1.000000
    7       -6.311189   1.000000
    8       -6.311138   1.000000
    9       -6.214707   1.000000
   10       -6.212264   1.000000
   11       -5.944621   1.000000
   12       -5.944237   1.000000
   13       -5.352077   1.000000
   14       -5.326534   1.000000
   15       -5.139386   1.000000
   16       -5.115648   1.000000
   17       -4.325367   1.000000
   18       -4.325160   1.000000
   19       -1.407395   0.000000
   20       -1.402993   0.000000
   21       -1.207165   0.000000
   22       -1.193728   0.000000
   23       -1.122626   0.000000
   24       -1.112454   0.000000
   25       -0.978402   0.000000
   26       -0.286648   0.000000
 
  0.3418800E-01  0.3418800E-01  0.0000000E+00  0.8333333E-02
    1      -18.154232   1.000000
    2      -18.154187   1.000000
    3      -17.229798   1.000000
    4      -17.229783   1.000000
    5       -9.363374   1.000000
    6       -9.363299   1.000000
    7       -6.362558   1.000000
    8       -6.362321   1.000000
    9       -6.206413   1.000000
   10       -6.199093   1.000000
   11       -6.007032   1.000000
   12       -6.004384   1.000000
   13       -5.380998   1.000000
   14       -5.335576   1.000000
   15       -5.125342   1.000000
   16       -5.082475   1.000000
   17       -4.332227   1.000000
   18       -4.331827   1.000000
   19       -1.448857   0.000000
   20       -1.437734   0.000000
   21       -1.285043   0.000000
   22       -1.276297   0.000000
   23       -1.116094   0.000000
   24       -1.073594   0.000000
   25       -1.014896   0.000000
   26        0.387940   0.000000
 
  0.4273500E-01  0.4273500E-01  0.0000000E+00  0.8333333E-02
    1      -18.129041   1.000000
    2      -18.128954   1.000000
    3      -17.214609   1.000000
    4      -17.214585   1.000000
    5       -9.331833   1.000000
    6       -9.331685   1.000000
    7       -6.427570   1.000000
    8       -6.426893   1.000000
    9       -6.210599   1.000000
   10       -6.191014   1.000000
   11       -6.067398   1.000000
   12       -6.054033   1.000000
   13       -5.426106   1.000000
   14       -5.362941   1.000000
   15       -5.103928   1.000000
   16       -5.043237   1.000000
   17       -4.341949   1.000000
   18       -4.341276   1.000000
   19       -1.509701   0.000000
   20       -1.494787   0.000000
   21       -1.378486   0.000000
   22       -1.367389   0.000000
   23       -1.119060   0.000000
   24       -1.081798   0.000000
   25       -1.062076   0.000000
   26       -0.371798   0.000000
 
  0.5128200E-01  0.5128200E-01  0.0000000E+00  0.8333333E-02
    1      -18.098477   1.000000
    2      -18.098327   1.000000
    3      -17.196184   1.000000
    4      -17.196147   1.000000
    5       -9.293899   1.000000
    6       -9.293641   1.000000
    7       -6.504634   1.000000
    8       -6.503330   1.000000
    9       -6.249669   1.000000
   10       -6.217827   1.000000
   11       -6.093459   1.000000
   12       -6.068763   1.000000
   13       -5.485595   1.000000
   14       -5.408371   1.000000
   15       -5.078791   1.000000
   16       -5.002747   1.000000
   17       -4.355213   1.000000
   18       -4.354229   1.000000
   19       -1.582280   0.000000
   20       -1.559660   0.000000
   21       -1.485164   0.000000
   22       -1.469266   0.000000
   23       -1.166587   0.000000
   24       -1.130901   0.000000
   25       -1.045786   0.000000
   26       -0.992806   0.000000
 
  0.5982900E-01  0.5982900E-01  0.0000000E+00  0.8333333E-02
    1      -18.062663   1.000000
    2      -18.062424   1.000000
    3      -17.174607   1.000000
    4      -17.174551   1.000000
    5       -9.249937   1.000000
    6       -9.249520   1.000000
    7       -6.592139   1.000000
    8       -6.590066   1.000000
    9       -6.319321   1.000000
   10       -6.286441   1.000000
   11       -6.076788   1.000000
   12       -6.051145   1.000000
   13       -5.558222   1.000000
   14       -5.470324   1.000000
   15       -5.053633   1.000000
   16       -4.964195   1.000000
   17       -4.372639   1.000000
   18       -4.371385   1.000000
   19       -1.656194   0.000000
   20       -1.627894   0.000000
   21       -1.595383   0.000000
   22       -1.575627   0.000000
   23       -1.230298   0.000000
   24       -1.204949   0.000000
   25       -1.012532   0.000000
   26       -0.988269   0.000000
 
  0.6837600E-01  0.6837600E-01  0.0000000E+00  0.8333333E-02
    1      -18.021753   1.000000
    2      -18.021396   1.000000
    3      -17.149974   1.000000
    4      -17.149893   1.000000
    5       -9.200419   1.000000
    6       -9.199783   1.000000
    7       -6.688579   1.000000
    8       -6.685694   1.000000
    9       -6.401333   1.000000
   10       -6.369062   1.000000
   11       -6.044235   1.000000
   12       -6.018324   1.000000
   13       -5.643169   1.000000
   14       -5.547543   1.000000
   15       -5.030961   1.000000
   16       -4.929580   1.000000
   17       -4.394839   1.000000
   18       -4.393484   1.000000
   19       -1.728718   0.000000
   20       -1.709649   0.000000
   21       -1.690486   0.000000
   22       -1.681839   0.000000
   23       -1.298827   0.000000
   24       -1.269132   0.000000
   25       -0.954102   0.000000
   26       -0.929730   0.000000
 
  0.7692300E-01  0.7692300E-01  0.0000000E+00  0.8333333E-02
    1      -17.975926   1.000000
    2      -17.975416   1.000000
    3      -17.122400   1.000000
    4      -17.122288   1.000000
    5       -9.145909   1.000000
    6       -9.144978   1.000000
    7       -6.792268   1.000000
    8       -6.788652   1.000000
    9       -6.487625   1.000000
   10       -6.455894   1.000000
   11       -6.005144   1.000000
   12       -5.977798   1.000000
   13       -5.739643   1.000000
   14       -5.638977   1.000000
   15       -5.012313   1.000000
   16       -4.900191   1.000000
   17       -4.422322   1.000000
   18       -4.421210   1.000000
   19       -1.815568   0.000000
   20       -1.797060   0.000000
   21       -1.783021   0.000000
   22       -1.752113   0.000000
   23       -1.372080   0.000000
   24       -1.338428   0.000000
   25       -0.891626   0.000000
   26       -0.874565   0.000000
 
  0.8547000E-01  0.8547000E-01  0.0000000E+00  0.8333333E-02
    1      -17.925389   1.000000
    2      -17.924689   1.000000
    3      -17.092016   1.000000
    4      -17.091864   1.000000
    5       -9.087100   1.000000
    6       -9.085780   1.000000
    7       -6.901586   1.000000
    8       -6.897452   1.000000
    9       -6.575067   1.000000
   10       -6.544051   1.000000
   11       -5.962599   1.000000
   12       -5.932714   1.000000
   13       -5.846706   1.000000
   14       -5.743534   1.000000
   15       -4.998650   1.000000
   16       -4.876873   1.000000
   17       -4.455412   1.000000
   18       -4.454921   1.000000
   19       -1.916580   0.000000
   20       -1.883432   0.000000
   21       -1.851354   0.000000
   22       -1.803959   0.000000
   23       -1.449104   0.000000
   24       -1.409850   0.000000
   25       -0.835384   0.000000
   26       -0.810692   0.000000
 
  0.9401700E-01  0.9401700E-01  0.0000000E+00  0.8333333E-02
    1      -17.870377   1.000000
    2      -17.869442   1.000000
    3      -17.058978   1.000000
    4      -17.058779   1.000000
    5       -9.024845   1.000000
    6       -9.023019   1.000000
    7       -7.014740   1.000000
    8       -7.010416   1.000000
    9       -6.662171   1.000000
   10       -6.632359   1.000000
   11       -5.963642   1.000000
   12       -5.917992   1.000000
   13       -5.886312   1.000000
   14       -5.858548   1.000000
   15       -4.990596   1.000000
   16       -4.860147   1.000000
   17       -4.495152   1.000000
   18       -4.493475   1.000000
   19       -2.009810   0.000000
   20       -1.972262   0.000000
   21       -1.898888   0.000000
   22       -1.845365   0.000000
   23       -1.527286   0.000000
   24       -1.482582   0.000000
   25       -0.775385   0.000000
   26       -0.747687   0.000000
 
  0.1025640E+00  0.1025640E+00  0.0000000E+00  0.8333333E-02
    1      -17.811156   1.000000
    2      -17.809940   1.000000
    3      -17.023446   1.000000
    4      -17.023192   1.000000
    5       -8.960175   1.000000
    6       -8.957694   1.000000
    7       -7.129815   1.000000
    8       -7.125733   1.000000
    9       -6.748108   1.000000
   10       -6.720339   1.000000
   11       -6.087494   1.000000
   12       -5.987111   1.000000
   13       -5.874502   1.000000
   14       -5.835645   1.000000
   15       -4.988568   1.000000
   16       -4.850267   1.000000
   17       -4.540828   1.000000
   18       -4.536272   1.000000
   19       -2.094142   0.000000
   20       -2.053319   0.000000
   21       -1.934100   0.000000
   22       -1.875588   0.000000
   23       -1.604894   0.000000
   24       -1.554563   0.000000
   25       -0.704832   0.000000
   26       -0.674112   0.000000
 
  0.1111110E+00  0.1111110E+00  0.0000000E+00  0.8333333E-02
    1      -17.748018   1.000000
    2      -17.746468   1.000000
    3      -16.985607   1.000000
    4      -16.985289   1.000000
    5       -8.894406   1.000000
    6       -8.891082   1.000000
    7       -7.244779   1.000000
    8       -7.241456   1.000000
    9       -6.832515   1.000000
   10       -6.808104   1.000000
   11       -6.216962   1.000000
   12       -6.121574   1.000000
   13       -5.833563   1.000000
   14       -5.788373   1.000000
   15       -4.992920   1.000000
   16       -4.847326   1.000000
   17       -4.590961   1.000000
   18       -4.582058   1.000000
   19       -2.169312   0.000000
   20       -2.126643   0.000000
   21       -1.956843   0.000000
   22       -1.894611   0.000000
   23       -1.679211   0.000000
   24       -1.623307   0.000000
   25       -0.631058   0.000000
   26       -0.613746   0.000000
 
  0.1196580E+00  0.1196580E+00  0.0000000E+00  0.8333333E-02
    1      -17.681283   1.000000
    2      -17.679343   1.000000
    3      -16.945663   1.000000
    4      -16.945273   1.000000
    5       -8.829217   1.000000
    6       -8.824810   1.000000
    7       -7.357327   1.000000
    8       -7.355363   1.000000
    9       -6.915501   1.000000
   10       -6.896446   1.000000
   11       -6.348994   1.000000
   12       -6.261752   1.000000
   13       -5.798318   1.000000
   14       -5.744957   1.000000
   15       -5.003951   1.000000
   16       -4.851314   1.000000
   17       -4.643407   1.000000
   18       -4.628496   1.000000
   19       -2.235626   0.000000
   20       -2.193197   0.000000
   21       -1.967347   0.000000
   22       -1.903185   0.000000
   23       -1.747438   0.000000
   24       -1.686213   0.000000
   25       -0.576097   0.000000
   26       -0.552693   0.000000
 
  0.1282050E+00  0.1282050E+00  0.0000000E+00  0.8333333E-02
    1      -17.611313   1.000000
    2      -17.608921   1.000000
    3      -16.903833   1.000000
    4      -16.903363   1.000000
    5       -8.766806   1.000000
    6       -8.761025   1.000000
    7       -7.464845   1.000000
    8       -7.464732   1.000000
    9       -6.997614   1.000000
   10       -6.986869   1.000000
   11       -6.479930   1.000000
   12       -6.404621   1.000000
   13       -5.772224   1.000000
   14       -5.708866   1.000000
   15       -5.021791   1.000000
   16       -4.862263   1.000000
   17       -4.695085   1.000000
   18       -4.672295   1.000000
   19       -2.293675   0.000000
   20       -2.254239   0.000000
   21       -1.966207   0.000000
   22       -1.902931   0.000000
   23       -1.806787   0.000000
   24       -1.740130   0.000000
   25       -0.512475   0.000000
   26       -0.489792   0.000000
 
  0.1367520E+00  0.1367520E+00  0.0000000E+00  0.8333333E-02
    1      -17.538495   1.000000
    2      -17.535587   1.000000
    3      -16.860361   1.000000
    4      -16.859802   1.000000
    5       -8.710075   1.000000
    6       -8.702584   1.000000
    7       -7.566587   1.000000
    8       -7.563729   1.000000
    9       -7.081746   1.000000
   10       -7.080159   1.000000
   11       -6.605297   1.000000
   12       -6.546569   1.000000
   13       -5.759110   1.000000
   14       -5.684396   1.000000
   15       -5.046203   1.000000
   16       -4.880573   1.000000
   17       -4.742176   1.000000
   18       -4.709240   1.000000
   19       -2.343885   0.000000
   20       -2.310602   0.000000
   21       -1.954341   0.000000
   22       -1.897331   0.000000
   23       -1.855112   0.000000
   24       -1.780772   0.000000
   25       -0.452474   0.000000
   26       -0.432134   0.000000
 
  0.1452990E+00  0.1452990E+00  0.0000000E+00  0.8333333E-02
    1      -17.463266   1.000000
    2      -17.459772   1.000000
    3      -16.815505   1.000000
    4      -16.814850   1.000000
    5       -8.662827   1.000000
    6       -8.653327   1.000000
    7       -7.656643   1.000000
    8       -7.650244   1.000000
    9       -7.183903   1.000000
   10       -7.165411   1.000000
   11       -6.720263   1.000000
   12       -6.683198   1.000000
   13       -5.762521   1.000000
   14       -5.676408   1.000000
   15       -5.076302   1.000000
   16       -4.907022   1.000000
   17       -4.780892   1.000000
   18       -4.735020   1.000000
   19       -2.386270   0.000000
   20       -2.362198   0.000000
   21       -1.933082   0.000000
   22       -1.893961   0.000000
   23       -1.891343   0.000000
   24       -1.800751   0.000000
   25       -0.396853   0.000000
   26       -0.377990   0.000000
 
  0.1538460E+00  0.1538460E+00  0.0000000E+00  0.8333333E-02
    1      -17.386089   1.000000
    2      -17.381936   1.000000
    3      -16.769551   1.000000
    4      -16.768793   1.000000
    5       -8.629640   1.000000
    6       -8.618050   1.000000
    7       -7.730208   1.000000
    8       -7.719627   1.000000
    9       -7.295494   1.000000
   10       -7.256707   1.000000
   11       -6.820766   1.000000
   12       -6.809224   1.000000
   13       -5.784825   1.000000
   14       -5.689333   1.000000
   15       -5.110672   1.000000
   16       -4.941902   1.000000
   17       -4.808334   1.000000
   18       -4.746994   1.000000
   19       -2.420111   0.000000
   20       -2.407680   0.000000
   21       -1.918453   0.000000
   22       -1.901366   0.000000
   23       -1.900064   0.000000
   24       -1.794133   0.000000
   25       -0.345159   0.000000
   26       -0.328571   0.000000
 
  0.1623930E+00  0.1623930E+00  0.0000000E+00  0.8333333E-02
    1      -17.307448   1.000000
    2      -17.302563   1.000000
    3      -16.722778   1.000000
    4      -16.721910   1.000000
    5       -8.614881   1.000000
    6       -8.601632   1.000000
    7       -7.782596   1.000000
    8       -7.767459   1.000000
    9       -7.416323   1.000000
   10       -7.357448   1.000000
   11       -6.919204   1.000000
   12       -6.904797   1.000000
   13       -5.826399   1.000000
   14       -5.725449   1.000000
   15       -5.148209   1.000000
   16       -4.984377   1.000000
   17       -4.823145   1.000000
   18       -4.745461   1.000000
   19       -2.444628   0.000000
   20       -2.443936   0.000000
   21       -1.932948   0.000000
   22       -1.910401   0.000000
   23       -1.865589   0.000000
   24       -1.768292   0.000000
   25       -0.297815   0.000000
   26       -0.284469   0.000000
 
  0.1709400E+00  0.1709400E+00  0.0000000E+00  0.8333333E-02
    1      -17.227883   1.000000
    2      -17.222189   1.000000
    3      -16.675515   1.000000
    4      -16.674532   1.000000
    5       -8.620826   1.000000
    6       -8.607028   1.000000
    7       -7.811955   1.000000
    8       -7.791740   1.000000
    9       -7.543229   1.000000
   10       -7.469152   1.000000
   11       -7.009790   1.000000
   12       -6.972924   1.000000
   13       -5.885800   1.000000
   14       -5.783991   1.000000
   15       -5.188904   1.000000
   16       -5.033248   1.000000
   17       -4.825906   1.000000
   18       -4.732983   1.000000
   19       -2.470354   0.000000
   20       -2.456072   0.000000
   21       -1.940938   0.000000
   22       -1.918655   0.000000
   23       -1.823453   0.000000
   24       -1.732524   0.000000
   25       -0.258062   0.000000
   26       -0.247493   0.000000
 
  0.1794870E+00  0.1794870E+00  0.0000000E+00  0.8333333E-02
    1      -17.147964   1.000000
    2      -17.141384   1.000000
    3      -16.628086   1.000000
    4      -16.626983   1.000000
    5       -8.645828   1.000000
    6       -8.632988   1.000000
    7       -7.824857   1.000000
    8       -7.795214   1.000000
    9       -7.667681   1.000000
   10       -7.589224   1.000000
   11       -7.081077   1.000000
   12       -7.026984   1.000000
   13       -5.960461   1.000000
   14       -5.861781   1.000000
   15       -5.233409   1.000000
   16       -5.087623   1.000000
   17       -4.818628   1.000000
   18       -4.712712   1.000000
   19       -2.482432   0.000000
   20       -2.455028   0.000000
   21       -1.944046   0.000000
   22       -1.923460   0.000000
   23       -1.777321   0.000000
   24       -1.691529   0.000000
   25       -0.221547   0.000000
   26       -0.214826   0.000000
 
  0.1880340E+00  0.1880340E+00  0.0000000E+00  0.8333333E-02
    1      -17.068299   1.000000
    2      -17.060756   1.000000
    3      -16.580834   1.000000
    4      -16.579609   1.000000
    5       -8.684765   1.000000
    6       -8.674264   1.000000
    7       -7.864548   1.000000
    8       -7.791892   1.000000
    9       -7.748485   1.000000
   10       -7.704991   1.000000
   11       -7.135619   1.000000
   12       -7.068969   1.000000
   13       -6.047526   1.000000
   14       -5.954833   1.000000
   15       -5.282240   1.000000
   16       -5.146904   1.000000
   17       -4.803826   1.000000
   18       -4.687385   1.000000
   19       -2.479207   0.000000
   20       -2.440026   0.000000
   21       -1.944432   0.000000
   22       -1.925355   0.000000
   23       -1.728896   0.000000
   24       -1.648048   0.000000
   25       -0.189293   0.000000
   26       -0.186682   0.000000
 
  0.1965810E+00  0.1965810E+00  0.0000000E+00  0.8333333E-02
    1      -16.989514   1.000000
    2      -16.980936   1.000000
    3      -16.534106   1.000000
    4      -16.532758   1.000000
    5       -8.731316   1.000000
    6       -8.724138   1.000000
    7       -7.975282   1.000000
    8       -7.865937   1.000000
    9       -7.745394   1.000000
   10       -7.734549   1.000000
   11       -7.176385   1.000000
   12       -7.100478   1.000000
   13       -6.144443   1.000000
   14       -6.059577   1.000000
   15       -5.335430   1.000000
   16       -5.210582   1.000000
   17       -4.783559   1.000000
   18       -4.658830   1.000000
   19       -2.460197   0.000000
   20       -2.411489   0.000000
   21       -1.943863   0.000000
   22       -1.925057   0.000000
   23       -1.679831   0.000000
   24       -1.604145   0.000000
   25       -0.163230   0.000000
   26       -0.160777   0.000000
 
  0.2051280E+00  0.2051280E+00  0.0000000E+00  0.8333333E-02
    1      -16.912251   1.000000
    2      -16.902571   1.000000
    3      -16.488277   1.000000
    4      -16.486806   1.000000
    5       -8.779810   1.000000
    6       -8.776595   1.000000
    7       -8.101450   1.000000
    8       -7.989094   1.000000
    9       -7.717865   1.000000
   10       -7.708464   1.000000
   11       -7.205796   1.000000
   12       -7.122748   1.000000
   13       -6.249119   1.000000
   14       -6.173214   1.000000
   15       -5.392661   1.000000
   16       -5.278151   1.000000
   17       -4.759035   1.000000
   18       -4.627889   1.000000
   19       -2.426445   0.000000
   20       -2.371574   0.000000
   21       -1.943341   0.000000
   22       -1.922434   0.000000
   23       -1.631862   0.000000
   24       -1.561711   0.000000
   25       -0.142696   0.000000
   26       -0.134461   0.000000
 
  0.2136750E+00  0.2136750E+00  0.0000000E+00  0.8333333E-02
    1      -16.837166   1.000000
    2      -16.826324   1.000000
    3      -16.443710   1.000000
    4      -16.442117   1.000000
    5       -8.827040   1.000000
    6       -8.825809   1.000000
    7       -8.226206   1.000000
    8       -8.112875   1.000000
    9       -7.685531   1.000000
   10       -7.677018   1.000000
   11       -7.225497   1.000000
   12       -7.136620   1.000000
   13       -6.359892   1.000000
   14       -6.293649   1.000000
   15       -5.453407   1.000000
   16       -5.349059   1.000000
   17       -4.730584   1.000000
   18       -4.594532   1.000000
   19       -2.381006   0.000000
   20       -2.324968   0.000000
   21       -1.942469   0.000000
   22       -1.915404   0.000000
   23       -1.586714   0.000000
   24       -1.522508   0.000000
   25       -0.123848   0.000000
   26       -0.109441   0.000000
 
  0.2222220E+00  0.2222220E+00  0.0000000E+00  0.8333333E-02
    1      -16.764925   1.000000
    2      -16.752873   1.000000
    3      -16.400759   1.000000
    4      -16.399048   1.000000
    5       -8.872105   1.000000
    6       -8.866097   1.000000
    7       -8.345884   1.000000
    8       -8.232027   1.000000
    9       -7.653813   1.000000
   10       -7.646603   1.000000
   11       -7.236735   1.000000
   12       -7.142795   1.000000
   13       -6.475403   1.000000
   14       -6.419282   1.000000
   15       -5.517017   1.000000
   16       -5.422694   1.000000
   17       -4.698041   1.000000
   18       -4.558230   1.000000
   19       -2.329870   0.000000
   20       -2.279900   0.000000
   21       -1.938427   0.000000
   22       -1.898758   0.000000
   23       -1.546039   0.000000
   24       -1.488131   0.000000
   25       -0.105392   0.000000
   26       -0.084331   0.000000
 
  0.2307690E+00  0.2307690E+00  0.0000000E+00  0.8333333E-02
    1      -16.696170   1.000000
    2      -16.682873   1.000000
    3      -16.359790   1.000000
    4      -16.357967   1.000000
    5       -8.909388   1.000000
    6       -8.898225   1.000000
    7       -8.458823   1.000000
    8       -8.344634   1.000000
    9       -7.625387   1.000000
   10       -7.619697   1.000000
   11       -7.240529   1.000000
   12       -7.141869   1.000000
   13       -6.594429   1.000000
   14       -6.548781   1.000000
   15       -5.582749   1.000000
   16       -5.498372   1.000000
   17       -4.661063   1.000000
   18       -4.518274   1.000000
   19       -2.283345   0.000000
   20       -2.247733   0.000000
   21       -1.924236   0.000000
   22       -1.864230   0.000000
   23       -1.511316   0.000000
   24       -1.459925   0.000000
   25       -0.085964   0.000000
   26       -0.057889   0.000000
 
  0.2393160E+00  0.2393160E+00  0.0000000E+00  0.8333333E-02
    1      -16.631524   1.000000
    2      -16.616966   1.000000
    3      -16.321144   1.000000
    4      -16.319216   1.000000
    5       -8.937124   1.000000
    6       -8.920404   1.000000
    7       -8.563957   1.000000
    8       -8.449519   1.000000
    9       -7.601849   1.000000
   10       -7.597599   1.000000
   11       -7.237849   1.000000
   12       -7.134421   1.000000
   13       -6.715747   1.000000
   14       -6.680935   1.000000
   15       -5.649779   1.000000
   16       -5.575345   1.000000
   17       -4.619425   1.000000
   18       -4.474087   1.000000
   19       -2.255139   0.000000
   20       -2.237607   0.000000
   21       -1.889409   0.000000
   22       -1.805612   0.000000
   23       -1.483700   0.000000
   24       -1.438857   0.000000
   25       -0.064611   0.000000
   26       -0.029387   0.000000
 
  0.2478630E+00  0.2478630E+00  0.0000000E+00  0.8333333E-02
    1      -16.571549   1.000000
    2      -16.555732   1.000000
    3      -16.285149   1.000000
    4      -16.283123   1.000000
    5       -8.954022   1.000000
    6       -8.931262   1.000000
    7       -8.660502   1.000000
    8       -8.545849   1.000000
    9       -7.584303   1.000000
   10       -7.581039   1.000000
   11       -7.229676   1.000000
   12       -7.121081   1.000000
   13       -6.837928   1.000000
   14       -6.814469   1.000000
   15       -5.717204   1.000000
   16       -5.652797   1.000000
   17       -4.573237   1.000000
   18       -4.425448   1.000000
   19       -2.254043   0.000000
   20       -2.250339   0.000000
   21       -1.828080   0.000000
   22       -1.724717   0.000000
   23       -1.463881   0.000000
   24       -1.425396   0.000000
   25       -0.040521   0.000000
   26        0.001695   0.000000
 
  0.2564100E+00  0.2564100E+00  0.0000000E+00  0.8333333E-02
    1      -16.516746   1.000000
    2      -16.499696   1.000000
    3      -16.252083   1.000000
    4      -16.249969   1.000000
    5       -8.959226   1.000000
    6       -8.929800   1.000000
    7       -8.747799   1.000000
    8       -8.632979   1.000000
    9       -7.573765   1.000000
   10       -7.570614   1.000000
   11       -7.217011   1.000000
   12       -7.102716   1.000000
   13       -6.958953   1.000000
   14       -6.947828   1.000000
   15       -5.784015   1.000000
   16       -5.729812   1.000000
   17       -4.523050   1.000000
   18       -4.372616   1.000000
   19       -2.280931   0.000000
   20       -2.277525   0.000000
   21       -1.745378   0.000000
   22       -1.628852   0.000000
   23       -1.451911   0.000000
   24       -1.419393   0.000000
   25       -0.013515   0.000000
   26        0.035263   0.000000
 
  0.2649570E+00  0.2649570E+00  0.0000000E+00  0.8333333E-02
    1      -16.467543   1.000000
    2      -16.449309   1.000000
    3      -16.222216   1.000000
    4      -16.220025   1.000000
    5       -8.952485   1.000000
    6       -8.915396   1.000000
    7       -8.825216   1.000000
    8       -8.710479   1.000000
    9       -7.571762   1.000000
   10       -7.567439   1.000000
   11       -7.200958   1.000000
   12       -7.089943   1.000000
   13       -7.078726   1.000000
   14       -7.066328   1.000000
   15       -5.849123   1.000000
   16       -5.805393   1.000000
   17       -4.469923   1.000000
   18       -4.316419   1.000000
   19       -2.323906   0.000000
   20       -2.318268   0.000000
   21       -1.650972   0.000000
   22       -1.525585   0.000000
   23       -1.447284   0.000000
   24       -1.420209   0.000000
   25        0.016030   0.000000
   26        0.070717   0.000000
 
  0.2735040E+00  0.2735040E+00  0.0000000E+00  0.8333333E-02
    1      -16.424253   1.000000
    2      -16.404908   1.000000
    3      -16.195744   1.000000
    4      -16.193486   1.000000
    5       -8.935979   1.000000
    6       -8.890321   1.000000
    7       -8.887578   1.000000
    8       -8.777836   1.000000