    6    6    1    1
  0.7965567E+02  0.3322260E-09  0.3322260E-09  0.5000000E-08  0.5000000E-15
  1.000000000000000E-004
  CAR 
 (MoSe2)2                                
     36    120     26
 
  0.0000000E+00  0.0000000E+00  0.0000000E+00  0.8333333E-02
    1      -16.625171   1.000000
    2      -16.586941   1.000000
    3      -15.563036   1.000000
    4      -15.500319   1.000000
    5       -8.313860   1.000000
    6       -8.088060   1.000000
    7       -5.211109   1.000000
    8       -5.208328   1.000000
    9       -5.074028   1.000000
   10       -5.061563   1.000000
   11       -4.700902   1.000000
   12       -4.301758   1.000000
   13       -4.270571   1.000000
   14       -4.007776   1.000000
   15       -3.906363   1.000000
   16       -3.901002   1.000000
   17       -3.290840   1.000000
   18       -2.891726   1.000000
   19        0.288461   0.000000
   20        0.296619   0.000000
   21        0.327370   0.000000
   22        0.333053   0.000000
   23        0.543509   0.000000
   24        0.578618   0.000000
   25        0.611599   0.000000
   26        0.679344   0.000000
 
  0.1282051E-01  0.0000000E+00  0.0000000E+00  0.8333333E-02
    1      -16.623022   1.000000
    2      -16.584790   1.000000
    3      -15.561859   1.000000
    4      -15.499160   1.000000
    5       -8.310986   1.000000
    6       -8.085188   1.000000
    7       -5.208534   1.000000
    8       -5.205847   1.000000
    9       -5.079166   1.000000
   10       -5.066743   1.000000
   11       -4.718147   1.000000
   12       -4.330509   1.000000
   13       -4.254317   1.000000
   14       -3.980333   1.000000
   15       -3.909931   1.000000
   16       -3.904540   1.000000
   17       -3.290729   1.000000
   18       -2.892227   1.000000
   19        0.277547   0.000000
   20        0.299529   0.000000
   21        0.316706   0.000000
   22        0.336043   0.000000
   23        0.528325   0.000000
   24        0.572931   0.000000
   25        0.588636   0.000000
   26        0.631525   0.000000
 
  0.2564103E-01  0.0000000E+00  0.0000000E+00  0.8333333E-02
    1      -16.616570   1.000000
    2      -16.578336   1.000000
    3      -15.558315   1.000000
    4      -15.495695   1.000000
    5       -8.302428   1.000000
    6       -8.076539   1.000000
    7       -5.200835   1.000000
    8       -5.198193   1.000000
    9       -5.094510   1.000000
   10       -5.082150   1.000000
   11       -4.763602   1.000000
   12       -4.397430   1.000000
   13       -4.211808   1.000000
   14       -3.920534   1.000000
   15       -3.917412   1.000000
   16       -3.915096   1.000000
   17       -3.290479   1.000000
   18       -2.893658   1.000000
   19        0.245618   0.000000
   20        0.286195   0.000000
   21        0.308880   0.000000
   22        0.345588   0.000000
   23        0.516792   0.000000
   24        0.540086   0.000000
   25        0.560518   0.000000
   26        0.595311   0.000000
 
  0.3846154E-01  0.0000000E+00  0.0000000E+00  0.8333333E-02
    1      -16.605833   1.000000
    2      -16.567598   1.000000
    3      -15.552419   1.000000
    4      -15.489943   1.000000
    5       -8.288231   1.000000
    6       -8.062148   1.000000
    7       -5.188106   1.000000
    8       -5.185420   1.000000
    9       -5.119826   1.000000
   10       -5.107474   1.000000
   11       -4.826189   1.000000
   12       -4.480048   1.000000
   13       -4.154350   1.000000
   14       -3.938001   1.000000
   15       -3.932466   1.000000
   16       -3.841809   1.000000
   17       -3.290172   1.000000
   18       -2.896070   1.000000
   19        0.194411   0.000000
   20        0.237202   0.000000
   21        0.324129   0.000000
   22        0.361221   0.000000
   23        0.469816   0.000000
   24        0.497854   0.000000
   25        0.536614   0.000000
   26        0.541501   0.000000
 
  0.5128205E-01  0.0000000E+00  0.0000000E+00  0.8333333E-02
    1      -16.590858   1.000000
    2      -16.552618   1.000000
    3      -15.544195   1.000000
    4      -15.481917   1.000000
    5       -8.268480   1.000000
    6       -8.042137   1.000000
    7       -5.170471   1.000000
    8       -5.167681   1.000000
    9       -5.154763   1.000000
   10       -5.142427   1.000000
   11       -4.898077   1.000000
   12       -4.569109   1.000000
   13       -4.090221   1.000000
   14       -3.961985   1.000000
   15       -3.956392   1.000000
   16       -3.763374   1.000000
   17       -3.289989   1.000000
   18       -2.899675   1.000000
   19        0.126419   0.000000
   20        0.172184   0.000000
   21        0.344615   0.000000
   22        0.379043   0.000000
   23        0.382373   0.000000
   24        0.460916   0.000000
   25        0.472111   0.000000
   26        0.515591   0.000000
 
  0.6410256E-01  0.0000000E+00  0.0000000E+00  0.8333333E-02
    1      -16.571689   1.000000
    2      -16.533445   1.000000
    3      -15.533672   1.000000
    4      -15.471648   1.000000
    5       -8.243273   1.000000
    6       -8.016605   1.000000
    7       -5.198719   1.000000
    8       -5.186426   1.000000
    9       -5.147880   1.000000
   10       -5.144983   1.000000
   11       -4.975038   1.000000
   12       -4.661059   1.000000
   13       -4.024371   1.000000
   14       -3.992158   1.000000
   15       -3.986442   1.000000
   16       -3.686454   1.000000
   17       -3.290126   1.000000
   18       -2.904610   1.000000
   19        0.044799   0.000000
   20        0.094268   0.000000
   21        0.272957   0.000000
   22        0.368364   0.000000
   23        0.371707   0.000000
   24        0.407871   0.000000
   25        0.442219   0.000000
   26        0.485434   0.000000
 
  0.7692308E-01  0.0000000E+00  0.0000000E+00  0.8333333E-02
    1      -16.548386   1.000000
    2      -16.510135   1.000000
    3      -15.520888   1.000000
    4      -15.459172   1.000000
    5       -8.212763   1.000000
    6       -7.985727   1.000000
    7       -5.251102   1.000000
    8       -5.238792   1.000000
    9       -5.120366   1.000000
   10       -5.117369   1.000000
   11       -5.054735   1.000000
   12       -4.754369   1.000000
   13       -4.027964   1.000000
   14       -4.022096   1.000000
   15       -3.959806   1.000000
   16       -3.613668   1.000000
   17       -3.290870   1.000000
   18       -2.911125   1.000000
   19       -0.046897   0.000000
   20        0.006922   0.000000
   21        0.156122   0.000000
   22        0.272958   0.000000
   23        0.378335   0.000000
   24        0.423108   0.000000
   25        0.423435   0.000000
   26        0.462239   0.000000
 
  0.8974359E-01  0.0000000E+00  0.0000000E+00  0.8333333E-02
    1      -16.521026   1.000000
    2      -16.482772   1.000000
    3      -15.505887   1.000000
    4      -15.444535   1.000000
    5       -8.177134   1.000000
    6       -7.949698   1.000000
    7       -5.311122   1.000000
    8       -5.298772   1.000000
    9       -5.135959   1.000000
   10       -5.088038   1.000000
   11       -5.084977   1.000000
   12       -4.848224   1.000000
   13       -4.068918   1.000000
   14       -4.062870   1.000000
   15       -3.898786   1.000000
   16       -3.547110   1.000000
   17       -3.292611   1.000000
   18       -2.919472   1.000000
   19       -0.145159   0.000000
   20       -0.086172   0.000000
   21        0.032702   0.000000
   22        0.168293   0.000000
   23        0.343654   0.000000
   24        0.389030   0.000000
   25        0.447644   0.000000
   26        0.485401   0.000000
 
  0.1025641E+00  0.0000000E+00  0.0000000E+00  0.8333333E-02
    1      -16.489702   1.000000
    2      -16.451445   1.000000
    3      -15.488726   1.000000
    4      -15.427789   1.000000
    5       -8.136632   1.000000
    6       -7.908773   1.000000
    7       -5.377991   1.000000
    8       -5.365509   1.000000
    9       -5.217948   1.000000
   10       -5.051025   1.000000
   11       -5.047862   1.000000
   12       -4.942191   1.000000
   13       -4.114429   1.000000
   14       -4.108205   1.000000
   15       -3.843142   1.000000
   16       -3.488785   1.000000
   17       -3.295842   1.000000
   18       -2.929957   1.000000
   19       -0.246601   0.000000
   20       -0.181451   0.000000
   21       -0.093584   0.000000
   22        0.061240   0.000000
   23        0.294491   0.000000
   24        0.339570   0.000000
   25        0.484891   0.000000
   26        0.523820   0.000000
 
  0.1153846E+00  0.0000000E+00  0.0000000E+00  0.8333333E-02
    1      -16.454516   1.000000
    2      -16.416264   1.000000
    3      -15.469472   1.000000
    4      -15.409002   1.000000
    5       -8.091549   1.000000
    6       -7.863276   1.000000
    7       -5.450890   1.000000
    8       -5.438175   1.000000
    9       -5.300315   1.000000
   10       -5.036004   1.000000
   11       -5.009444   1.000000
   12       -5.006150   1.000000
   13       -4.163889   1.000000
   14       -4.157488   1.000000
   15       -3.794539   1.000000
   16       -3.440580   1.000000
   17       -3.301184   1.000000
   18       -2.943010   1.000000
   19       -0.348540   0.000000
   20       -0.275634   0.000000
   21       -0.218962   0.000000
   22       -0.044974   0.000000
   23        0.239272   0.000000
   24        0.284245   0.000000
   25        0.527643   0.000000
   26        0.566901   0.000000
 
  0.1282051E+00  0.0000000E+00  0.0000000E+00  0.8333333E-02
    1      -16.415597   1.000000
    2      -16.377350   1.000000
    3      -15.448196   1.000000
    4      -15.388246   1.000000
    5       -8.042241   1.000000
    6       -7.813586   1.000000
    7       -5.528947   1.000000
    8       -5.515793   1.000000
    9       -5.382701   1.000000
   10       -5.129530   1.000000
   11       -4.963433   1.000000
   12       -4.959997   1.000000
   13       -4.216701   1.000000
   14       -4.210136   1.000000
   15       -3.754429   1.000000
   16       -3.404299   1.000000
   17       -3.309380   1.000000
   18       -2.959133   1.000000
   19       -0.449563   0.000000
   20       -0.366057   0.000000
   21       -0.338793   0.000000
   22       -0.146897   0.000000
   23        0.179570   0.000000
   24        0.224299   0.000000
   25        0.570811   0.000000
   26        0.611939   0.000000
 
  0.1410256E+00  0.0000000E+00  0.0000000E+00  0.8333333E-02
    1      -16.373079   1.000000
    2      -16.334843   1.000000
    3      -15.424983   1.000000
    4      -15.365603   1.000000
    5       -7.989139   1.000000
    6       -7.760205   1.000000
    7       -5.611333   1.000000
    8       -5.597436   1.000000
    9       -5.464920   1.000000
   10       -5.222637   1.000000
   11       -4.913156   1.000000
   12       -4.909527   1.000000
   13       -4.272268   1.000000
   14       -4.265513   1.000000
   15       -3.724086   1.000000
   16       -3.381340   1.000000
   17       -3.321338   1.000000
   18       -2.979132   1.000000
   19       -0.550565   0.000000
   20       -0.451000   0.000000
   21       -0.446717   0.000000
   22       -0.240700   0.000000
   23        0.116268   0.000000
   24        0.160826   0.000000
   25        0.616685   0.000000
   26        0.659167   0.000000
 
  0.1538462E+00  0.0000000E+00  0.0000000E+00  0.8333333E-02
    1      -16.327122   1.000000
    2      -16.288902   1.000000
    3      -15.399928   1.000000
    4      -15.341168   1.000000
    5       -7.932768   1.000000
    6       -7.703715   1.000000
    7       -5.697150   1.000000
    8       -5.682119   1.000000
    9       -5.546897   1.000000
   10       -5.315323   1.000000
   11       -4.858827   1.000000
   12       -4.854959   1.000000
   13       -4.330050   1.000000
   14       -4.323116   1.000000
   15       -3.704493   1.000000
   16       -3.372511   1.000000
   17       -3.338034   1.000000
   18       -3.003995   1.000000
   19       -0.653358   0.000000
   20       -0.536068   0.000000
   21       -0.530164   0.000000
   22       -0.321969   0.000000
   23        0.050055   0.000000
   24        0.094405   0.000000
   25        0.663783   0.000000
   26        0.707594   0.000000
 
  0.1666667E+00  0.0000000E+00  0.0000000E+00  0.8333333E-02
    1      -16.277900   1.000000
    2      -16.239701   1.000000
    3      -15.373137   1.000000
    4      -15.315036   1.000000
    5       -7.873718   1.000000
    6       -7.644854   1.000000
    7       -5.785448   1.000000
    8       -5.768802   1.000000
    9       -5.628521   1.000000
   10       -5.407513   1.000000
   11       -4.800578   1.000000
   12       -4.796454   1.000000
   13       -4.389456   1.000000
   14       -4.382328   1.000000
   15       -3.696196   1.000000
   16       -3.377791   1.000000
   17       -3.360409   1.000000
   18       -3.034902   1.000000
   19       -0.756271   0.000000
   20       -0.604411   0.000000
   21       -0.604307   0.000000
   22       -0.385988   0.000000
   23       -0.018435   0.000000
   24        0.025647   0.000000
   25        0.711321   0.000000
   26        0.756607   0.000000
 
  0.1794872E+00  0.0000000E+00  0.0000000E+00  0.8333333E-02
    1      -16.225610   1.000000
    2      -16.187432   1.000000
    3      -15.344726   1.000000
    4      -15.287338   1.000000
    5       -7.812790   1.000000
    6       -7.584527   1.000000
    7       -5.875336   1.000000
    8       -5.856363   1.000000
    9       -5.709770   1.000000
   10       -5.499253   1.000000
   11       -4.738728   1.000000
   12       -4.734238   1.000000
   13       -4.449968   1.000000
   14       -4.442712   1.000000
   15       -3.699312   1.000000
   16       -3.396330   1.000000
   17       -3.389345   1.000000
   18       -3.072954   1.000000
   19       -0.855083   0.000000
   20       -0.674765   0.000000
   21       -0.652473   0.000000
   22       -0.429190   0.000000
   23       -0.088646   0.000000
   24       -0.044874   0.000000
   25        0.758768   0.000000
   26        0.805576   0.000000
 
  0.1923077E+00  0.0000000E+00  0.0000000E+00  0.8333333E-02
    1      -16.170460   1.000000
    2      -16.132316   1.000000
    3      -15.314826   1.000000
    4      -15.258183   1.000000
    5       -7.750885   1.000000
    6       -7.523895   1.000000
    7       -5.965772   1.000000
    8       -5.943640   1.000000
    9       -5.790673   1.000000
   10       -5.590468   1.000000
   11       -4.673419   1.000000
   12       -4.668563   1.000000
   13       -4.511053   1.000000
   14       -4.503666   1.000000
   15       -3.713496   1.000000
   16       -3.426632   1.000000
   17       -3.425249   1.000000
   18       -3.118814   1.000000
   19       -0.946364   0.000000
   20       -0.741133   0.000000
   21       -0.681779   0.000000
   22       -0.450356   0.000000
   23       -0.159989   0.000000
   24       -0.116638   0.000000
   25        0.805719   0.000000
   26        0.854145   0.000000
 
  0.2051282E+00  0.0000000E+00  0.0000000E+00  0.8333333E-02
    1      -16.112683   1.000000
    2      -16.074584   1.000000
    3      -15.283581   1.000000
    4      -15.227716   1.000000
    5       -7.689147   1.000000
    6       -7.464434   1.000000
    7       -6.055752   1.000000
    8       -6.029293   1.000000
    9       -5.871232   1.000000
   10       -5.681181   1.000000
   11       -4.605400   1.000000
   12       -4.599787   1.000000
   13       -4.571969   1.000000
   14       -4.564770   1.000000
   15       -3.737994   1.000000
   16       -3.468027   1.000000
   17       -3.466811   1.000000
   18       -3.172472   1.000000
   19       -1.028105   0.000000
   20       -0.802475   0.000000
   21       -0.693282   0.000000
   22       -0.450668   0.000000
   23       -0.232023   0.000000
   24       -0.189175   0.000000
   25        0.851564   0.000000
   26        0.901750   0.000000
 
  0.2179487E+00  0.0000000E+00  0.0000000E+00  0.8333333E-02
    1      -16.052529   1.000000
    2      -16.014488   1.000000
    3      -15.251135   1.000000
    4      -15.196090   1.000000
    5       -7.628972   1.000000
    6       -7.407943   1.000000
    7       -6.144021   1.000000
    8       -6.111608   1.000000
    9       -5.951354   1.000000
   10       -5.771288   1.000000
   11       -4.633899   1.000000
   12       -4.625927   1.000000
   13       -4.533291   1.000000
   14       -4.527873   1.000000
   15       -3.771709   1.000000
   16       -3.516921   1.000000
   17       -3.514695   1.000000
   18       -3.233129   1.000000
   19       -1.099185   0.000000
   20       -0.857531   0.000000
   21       -0.688119   0.000000
   22       -0.432391   0.000000
   23       -0.304269   0.000000
   24       -0.262021   0.000000
   25        0.896138   0.000000
   26        0.948092   0.000000
 
  0.2307692E+00  0.0000000E+00  0.0000000E+00  0.8333333E-02
    1      -15.990282   1.000000
    2      -15.952317   1.000000
    3      -15.217665   1.000000
    4      -15.163459   1.000000
    5       -7.572073   1.000000
    6       -7.356790   1.000000
    7       -6.229215   1.000000
    8       -6.188724   1.000000
    9       -6.031087   1.000000
   10       -5.860703   1.000000
   11       -4.694366   1.000000
   12       -4.686306   1.000000
   13       -4.459508   1.000000
   14       -4.453548   1.000000
   15       -3.813340   1.000000
   16       -3.570601   1.000000
   17       -3.568065   1.000000
   18       -3.299444   1.000000
   19       -1.159159   0.000000
   20       -0.905642   0.000000
   21       -0.667877   0.000000
   22       -0.398245   0.000000
   23       -0.376312   0.000000
   24       -0.334777   0.000000
   25        0.938951   0.000000
   26        0.992782   0.000000
 
  0.2435897E+00  0.0000000E+00  0.0000000E+00  0.8333333E-02
    1      -15.926247   1.000000
    2      -15.888369   1.000000
    3      -15.183341   1.000000
    4      -15.130008   1.000000
    5       -7.520544   1.000000
    6       -7.313813   1.000000
    7       -6.309763   1.000000
    8       -6.258369   1.000000
    9       -6.110183   1.000000
   10       -5.949253   1.000000
   11       -4.753940   1.000000
   12       -4.745777   1.000000
   13       -4.383429   1.000000
   14       -4.376923   1.000000
   15       -3.861410   1.000000
   16       -3.627184   1.000000
   17       -3.624606   1.000000
   18       -3.369654   1.000000
   19       -1.208138   0.000000
   20       -0.946648   0.000000
   21       -0.634293   0.000000
   22       -0.447777   0.000000
   23       -0.407063   0.000000
   24       -0.350986   0.000000
   25        0.980292   0.000000
   26        1.035652   0.000000
 
  0.2564103E+00  0.0000000E+00  0.0000000E+00  0.8333333E-02
    1      -15.860762   1.000000
    2      -15.822977   1.000000
    3      -15.148357   1.000000
    4      -15.095920   1.000000
    5       -7.476896   1.000000
    6       -7.282309   1.000000
    7       -6.383942   1.000000
    8       -6.318109   1.000000
    9       -6.188417   1.000000
   10       -6.036637   1.000000
   11       -4.812302   1.000000
   12       -4.803979   1.000000
   13       -4.305514   1.000000
   14       -4.298419   1.000000
   15       -3.914411   1.000000
   16       -3.684458   1.000000
   17       -3.682056   1.000000
   18       -3.441847   1.000000
   19       -1.246669   0.000000
   20       -0.980830   0.000000
   21       -0.589349   0.000000
   22       -0.518333   0.000000
   23       -0.478543   0.000000
   24       -0.293184   0.000000
   25        1.018756   0.000000
   26        1.076447   0.000000
 
  0.2692308E+00  0.0000000E+00  0.0000000E+00  0.8333333E-02
    1      -15.794172   1.000000
    2      -15.756487   1.000000
    3      -15.112917   1.000000
    4      -15.061394   1.000000
    5       -7.443925   1.000000
    6       -7.265492   1.000000
    7       -6.449925   1.000000
    8       -6.365809   1.000000
    9       -6.265294   1.000000
   10       -6.122227   1.000000
   11       -4.869088   1.000000
   12       -4.860625   1.000000
   13       -4.226155   1.000000
   14       -4.218412   1.000000
   15       -3.970867   1.000000
   16       -3.740010   1.000000
   17       -3.738240   1.000000
   18       -3.514037   1.000000
   19       -1.275566   0.000000
   20       -1.008715   0.000000
   21       -0.587649   0.000000
   22       -0.548904   0.000000
   23       -0.534985   0.000000
   24       -0.227143   0.000000
   25        1.055410   0.000000
   26        1.115035   0.000000
 
  0.2820513E+00  0.0000000E+00  0.0000000E+00  0.8333333E-02
    1      -15.726862   1.000000
    2      -15.689286   1.000000
    3      -15.077233   1.000000
    4      -15.026641   1.000000
    5       -7.424416   1.000000
    6       -7.265693   1.000000
    7       -6.506373   1.000000
    8       -6.400974   1.000000
    9       -6.339892   1.000000
   10       -6.204853   1.000000
   11       -4.924017   1.000000
   12       -4.915483   1.000000
   13       -4.145793   1.000000
   14       -4.137261   1.000000
   15       -4.029405   1.000000
   16       -3.791382   1.000000
   17       -3.791289   1.000000
   18       -3.584187   1.000000
   19       -1.295817   0.000000
   20       -1.031062   0.000000
   21       -0.655453   0.000000
   22       -0.617833   0.000000
   23       -0.473140   0.000000
   24       -0.155025   0.000000
   25        1.089674   0.000000
   26        1.151303   0.000000
 
  0.2948718E+00  0.0000000E+00  0.0000000E+00  0.8333333E-02
    1      -15.659236   1.000000
    2      -15.621797   1.000000
    3      -15.041546   1.000000
    4      -14.991889   1.000000
    5       -7.420455   1.000000
    6       -7.283373   1.000000
    7       -6.553526   1.000000
    8       -6.426797   1.000000
    9       -6.410335   1.000000
   10       -6.281464   1.000000
   11       -4.976918   1.000000
   12       -4.968297   1.000000
   13       -4.088793   1.000000
   14       -4.064903   1.000000
   15       -4.055547   1.000000
   16       -3.840006   1.000000
   17       -3.836218   1.000000
   18       -3.650048   1.000000
   19       -1.308552   0.000000
   20       -1.048766   0.000000
   21       -0.721477   0.000000
   22       -0.685130   0.000000
   23       -0.405656   0.000000
   24       -0.078684   0.000000
   25        1.121559   0.000000
   26        1.185083   0.000000
 
  0.3076923E+00  0.0000000E+00  0.0000000E+00  0.8333333E-02
    1      -15.591740   1.000000
    2      -15.554457   1.000000
    3      -15.006107   1.000000
    4      -14.957383   1.000000
    5       -7.432725   1.000000
    6       -7.316791   1.000000
    7       -6.595252   1.000000
    8       -6.472424   1.000000
    9       -6.454677   1.000000
   10       -6.342856   1.000000
   11       -5.027571   1.000000
   12       -5.018809   1.000000
   13       -4.147913   1.000000
   14       -3.983972   1.000000
   15       -3.973703   1.000000
   16       -3.884145   1.000000
   17       -3.872521   1.000000
   18       -3.708796   1.000000
   19       -1.314890   0.000000
   20       -1.062685   0.000000
   21       -0.785520   0.000000
   22       -0.750549   0.000000
   23       -0.334228   0.000000
   24        0.000148   0.000000
   25        1.151022   0.000000
   26        1.216482   0.000000
 
  0.3205128E+00  0.0000000E+00  0.0000000E+00  0.8333333E-02
    1      -15.524846   1.000000
    2      -15.487733   1.000000
    3      -14.971144   1.000000
    4      -14.923355   1.000000
    5       -7.460022   1.000000
    6       -7.362680   1.000000
    7       -6.640131   1.000000
    8       -6.518813   1.000000
    9       -6.502874   1.000000
   10       -6.374191   1.000000
   11       -5.075740   1.000000
   12       -5.066875   1.000000
   13       -4.205755   1.000000
   14       -3.925038   1.000000
   15       -3.903476   1.000000
   16       -3.898710   1.000000
   17       -3.892238   1.000000
   18       -3.756681   1.000000
   19       -1.315976   0.000000
   20       -1.073660   0.000000
   21       -0.847265   0.000000
   22       -0.813839   0.000000
   23       -0.260346   0.000000
   24        0.080042   0.000000
   25        1.178095   0.000000
   26        1.245420   0.000000
 
  0.3333333E+00  0.0000000E+00  0.0000000E+00  0.8333333E-02
    1      -15.459057   1.000000
    2      -15.422117   1.000000
    3      -14.936940   1.000000
    4      -14.890070   1.000000
    5       -7.499659   1.000000
    6       -7.417320   1.000000
    7       -6.694445   1.000000
    8       -6.568325   1.000000
    9       -6.545754   1.000000
   10       -6.382090   1.000000
   11       -5.121278   1.000000
   12       -5.112312   1.000000
   13       -4.261449   1.000000
   14       -3.965260   1.000000
   15       -3.913777   1.000000
   16       -3.824058   1.000000
   17       -3.811720   1.000000
   18       -3.789413   1.000000
   19       -1.312916   0.000000
   20       -1.082472   0.000000
   21       -0.906588   0.000000
   22       -0.874782   0.000000
   23       -0.185482   0.000000
   24        0.159600   0.000000
   25        1.202778   0.000000
   26        1.271913   0.000000
 
  0.3461538E+00  0.0000000E+00  0.0000000E+00  0.8333333E-02
    1      -15.394895   1.000000
    2      -15.358132   1.000000
    3      -14.903755   1.000000
    4      -14.857785   1.000000
    5       -7.548237   1.000000
    6       -7.477308   1.000000
    7       -6.755166   1.000000
    8       -6.638333   1.000000
    9       -6.559052   1.000000
   10       -6.382042   1.000000
   11       -5.164013   1.000000
   12       -5.154942   1.000000
   13       -4.314255   1.000000
   14       -4.006726   1.000000
   15       -3.917329   1.000000
   16       -3.804175   1.000000
   17       -3.746257   1.000000
   18       -3.732727   1.000000
   19       -1.306753   0.000000
   20       -1.089829   0.000000
   21       -0.963232   0.000000
   22       -0.933148   0.000000
   23       -0.110943   0.000000
   24        0.237632   0.000000
   25        1.225158   0.000000
   26        1.296036   0.000000
 
  0.3589744E+00  0.0000000E+00  0.0000000E+00  0.8333333E-02
    1      -15.332908   1.000000
    2      -15.296325   1.000000
    3      -14.871857   1.000000
    4      -14.826772   1.000000
    5       -7.602422   1.000000
    6       -7.539854   1.000000
    7       -6.817423   1.000000
    8       -6.707568   1.000000
    9       -6.565895   1.000000
   10       -6.381059   1.000000
   11       -5.203794   1.000000
   12       -5.194667   1.000000
   13       -4.363596   1.000000
   14       -4.049098   1.000000
   15       -3.909563   1.000000
   16       -3.801268   1.000000
   17       -3.670719   1.000000
   18       -3.655897   1.000000
   19       -1.298392   0.000000
   20       -1.096390   0.000000
   21       -1.016976   0.000000
   22       -0.988716   0.000000
   23       -0.037928   0.000000
   24        0.313040   0.000000
   25        1.245309   0.000000
   26        1.317815   0.000000
 
  0.3717949E+00  0.0000000E+00  0.0000000E+00  0.8333333E-02
    1      -15.273645   1.000000
    2      -15.237254   1.000000
    3      -14.841547   1.000000
    4      -14.797298   1.000000
    5       -7.659297   1.000000
    6       -7.602727   1.000000
    7       -6.878358   1.000000
    8       -6.773944   1.000000
    9       -6.570577   1.000000
   10       -6.381843   1.000000
   11       -5.240524   1.000000
   12       -5.231315   1.000000
   13       -4.409063   1.000000
   14       -4.090720   1.000000
   15       -3.891327   1.000000
   16       -3.783161   1.000000
   17       -3.598074   1.000000
   18       -3.581930   1.000000
   19       -1.288589   0.000000
   20       -1.102744   0.000000
   21       -1.067559   0.000000
   22       -1.041264   0.000000
   23        0.032429   0.000000
   24        0.384879   0.000000
   25        1.263283   0.000000
   26        1.337339   0.000000
 
  0.3846154E+00  0.0000000E+00  0.0000000E+00  0.8333333E-02
    1      -15.217698   1.000000
    2      -15.181501   1.000000
    3      -14.813083   1.000000
    4      -14.769630   1.000000
    5       -7.716483   1.000000
    6       -7.664141   1.000000
    7       -6.936398   1.000000
    8       -6.836387   1.000000
    9       -6.575259   1.000000
   10       -6.385290   1.000000
   11       -5.274067   1.000000
   12       -5.264778   1.000000
   13       -4.450366   1.000000
   14       -4.130087   1.000000
   15       -3.864089   1.000000
   16       -3.752874   1.000000
   17       -3.529057   1.000000
   18       -3.511518   1.000000
   19       -1.278154   0.000000
   20       -1.114775   0.000000
   21       -1.109280   0.000000
   22       -1.090525   0.000000
   23        0.099081   0.000000
   24        0.452213   0.000000
   25        1.279208   0.000000
   26        1.354738   0.000000
 
  0.3974359E+00  0.0000000E+00  0.0000000E+00  0.8333333E-02
    1      -15.165640   1.000000
    2      -15.129625   1.000000
    3      -14.786721   1.000000
    4      -14.744030   1.000000
    5       -7.772055   1.000000
    6       -7.722637   1.000000
    7       -6.990472   1.000000
    8       -6.894087   1.000000
    9       -6.580810   1.000000
   10       -6.391332   1.000000
   11       -5.304302   1.000000
   12       -5.294972   1.000000
   13       -4.487321   1.000000
   14       -4.166199   1.000000
   15       -3.829775   1.000000
   16       -3.713519   1.000000
   17       -3.464389   1.000000
   18       -3.445379   1.000000
   19       -1.267697   0.000000
   20       -1.158378   0.000000
   21       -1.136130   0.000000
   22       -1.116224   0.000000
   23        0.161171   0.000000
   24        0.514302   0.000000
   25        1.293142   0.000000
   26        1.369940   0.000000
 
  0.4102564E+00  0.0000000E+00  0.0000000E+00  0.8333333E-02
    1      -15.118043   1.000000
    2      -15.082212   1.000000
    3      -14.762746   1.000000
    4      -14.720741   1.000000
    5       -7.824447   1.000000
    6       -7.777030   1.000000
    7       -7.039880   1.000000
    8       -6.946440   1.000000