    6    6    1    1
  0.7965567E+02  0.3322260E-09  0.3322260E-09  0.5000000E-08  0.5000000E-15
  1.000000000000000E-004
  CAR 
 (MoSe2)2                                
     36     80     26
 
  0.5000000E+00  0.0000000E+00  0.0000000E+00  0.1250000E-01
    1      -14.958670   1.000000
    2      -14.923545   1.000000
    3      -14.662370   1.000000
    4      -14.622443   1.000000
    5       -8.100577   1.000000
    6       -8.054122   1.000000
    7       -7.191457   1.000000
    8       -7.109853   1.000000
    9       -6.688141   1.000000
   10       -6.525958   1.000000
   11       -5.516549   1.000000
   12       -5.506602   1.000000
   13       -4.630185   1.000000
   14       -4.303381   1.000000
   15       -3.664594   1.000000
   16       -3.493139   1.000000
   17       -3.182675   1.000000
   18       -3.155239   1.000000
   19       -1.362338   0.000000
   20       -1.347454   0.000000
   21       -1.001260   0.000000
   22       -0.944599   0.000000
   23        0.481906   0.000000
   24        0.825915   0.000000
   25        1.269576   0.000000
   26        1.353910   0.000000
 
  0.4957265E+00  0.8547000E-02  0.0000000E+00  0.1250000E-01
    1      -14.958356   1.000000
    2      -14.923229   1.000000
    3      -14.662144   1.000000
    4      -14.622221   1.000000
    5       -8.099534   1.000000
    6       -8.053082   1.000000
    7       -7.191859   1.000000
    8       -7.110411   1.000000
    9       -6.687842   1.000000
   10       -6.525623   1.000000
   11       -5.517235   1.000000
   12       -5.506861   1.000000
   13       -4.629695   1.000000
   14       -4.303204   1.000000
   15       -3.668570   1.000000
   16       -3.498222   1.000000
   17       -3.182937   1.000000
   18       -3.154693   1.000000
   19       -1.362184   0.000000
   20       -1.346967   0.000000
   21       -1.000749   0.000000
   22       -0.943929   0.000000
   23        0.482882   0.000000
   24        0.826606   0.000000
   25        1.264834   0.000000
   26        1.349907   0.000000
 
  0.4914530E+00  0.1709400E-01  0.0000000E+00  0.1250000E-01
    1      -14.957419   1.000000
    2      -14.922294   1.000000
    3      -14.661453   1.000000
    4      -14.621546   1.000000
    5       -8.096402   1.000000
    6       -8.049962   1.000000
    7       -7.193060   1.000000
    8       -7.112082   1.000000
    9       -6.686925   1.000000
   10       -6.524608   1.000000
   11       -5.519253   1.000000
   12       -5.507623   1.000000
   13       -4.628232   1.000000
   14       -4.302669   1.000000
   15       -3.680441   1.000000
   16       -3.513264   1.000000
   17       -3.183716   1.000000
   18       -3.153206   1.000000
   19       -1.361755   0.000000
   20       -1.345526   0.000000
   21       -0.999210   0.000000
   22       -0.941885   0.000000
   23        0.485805   0.000000
   24        0.828656   0.000000
   25        1.250744   0.000000
   26        1.338038   0.000000
 
  0.4871795E+00  0.2564100E-01  0.0000000E+00  0.1250000E-01
    1      -14.955860   1.000000
    2      -14.920741   1.000000
    3      -14.660305   1.000000
    4      -14.620413   1.000000
    5       -8.091185   1.000000
    6       -8.044768   1.000000
    7       -7.195073   1.000000
    8       -7.114861   1.000000
    9       -6.685411   1.000000
   10       -6.522930   1.000000
   11       -5.522545   1.000000
   12       -5.508853   1.000000
   13       -4.625879   1.000000
   14       -4.301831   1.000000
   15       -3.700083   1.000000
   16       -3.537675   1.000000
   17       -3.185016   1.000000
   18       -3.151207   1.000000
   19       -1.361122   0.000000
   20       -1.343337   0.000000
   21       -0.996543   0.000000
   22       -0.938353   0.000000
   23        0.490620   0.000000
   24        0.831968   0.000000
   25        1.227746   0.000000
   26        1.318732   0.000000
 
  0.4829059E+00  0.3418800E-01  0.0000000E+00  0.1250000E-01
    1      -14.953684   1.000000
    2      -14.918572   1.000000
    3      -14.658703   1.000000
    4      -14.618833   1.000000
    5       -8.083889   1.000000
    6       -8.037504   1.000000
    7       -7.197906   1.000000
    8       -7.118754   1.000000
    9       -6.683287   1.000000
   10       -6.520603   1.000000
   11       -5.526945   1.000000
   12       -5.510453   1.000000
   13       -4.622731   1.000000
   14       -4.300759   1.000000
   15       -3.727259   1.000000
   16       -3.570675   1.000000
   17       -3.186821   1.000000
   18       -3.149171   1.000000
   19       -1.360424   0.000000
   20       -1.340601   0.000000
   21       -0.992617   0.000000
   22       -0.933133   0.000000
   23        0.497274   0.000000
   24        0.836343   0.000000
   25        1.196554   0.000000
   26        1.292693   0.000000
 
  0.4786324E+00  0.4273500E-01  0.0000000E+00  0.1250000E-01
    1      -14.950901   1.000000
    2      -14.915799   1.000000
    3      -14.656655   1.000000
    4      -14.616811   1.000000
    5       -8.074520   1.000000
    6       -8.028181   1.000000
    7       -7.201579   1.000000
    8       -7.123768   1.000000
    9       -6.680556   1.000000
   10       -6.517624   1.000000
   11       -5.532281   1.000000
   12       -5.512332   1.000000
   13       -4.618950   1.000000
   14       -4.299564   1.000000
   15       -3.761677   1.000000
   16       -3.611440   1.000000
   17       -3.189112   1.000000
   18       -3.147551   1.000000
   19       -1.359884   0.000000
   20       -1.337746   0.000000
   21       -0.987261   0.000000
   22       -0.925988   0.000000
   23        0.505633   0.000000
   24        0.841440   0.000000
   25        1.158064   0.000000
   26        1.260889   0.000000
 
  0.4743589E+00  0.5128200E-01  0.0000000E+00  0.1250000E-01
    1      -14.947526   1.000000
    2      -14.912436   1.000000
    3      -14.654174   1.000000
    4      -14.614361   1.000000
    5       -8.063097   1.000000
    6       -8.016814   1.000000
    7       -7.206116   1.000000
    8       -7.129909   1.000000
    9       -6.677244   1.000000
   10       -6.514033   1.000000
   11       -5.538433   1.000000
   12       -5.514418   1.000000
   13       -4.614721   1.000000
   14       -4.298390   1.000000
   15       -3.803008   1.000000
   16       -3.659205   1.000000
   17       -3.191850   1.000000
   18       -3.146633   1.000000
   19       -1.359716   0.000000
   20       -1.335184   0.000000
   21       -0.980285   0.000000
   22       -0.916658   0.000000
   23        0.515521   0.000000
   24        0.846697   0.000000
   25        1.113299   0.000000
   26        1.224576   0.000000
 
  0.4700854E+00  0.5982900E-01  0.0000000E+00  0.1250000E-01
    1      -14.943573   1.000000
    2      -14.908493   1.000000
    3      -14.651257   1.000000
    4      -14.611494   1.000000
    5       -8.049627   1.000000
    6       -8.003413   1.000000
    7       -7.211527   1.000000
    8       -7.137177   1.000000
    9       -6.673363   1.000000
   10       -6.509808   1.000000
   11       -5.545112   1.000000
   12       -5.516502   1.000000
   13       -4.610243   1.000000
   14       -4.297407   1.000000
   15       -3.850867   1.000000
   16       -3.713250   1.000000
   17       -3.194973   1.000000
   18       -3.146552   1.000000
   19       -1.360270   0.000000
   20       -1.333344   0.000000
   21       -0.971497   0.000000
   22       -0.904845   0.000000
   23        0.526702   0.000000
   24        0.851196   0.000000
   25        1.063453   0.000000
   26        1.185500   0.000000
 
  0.4658119E+00  0.6837600E-01  0.0000000E+00  0.1250000E-01
    1      -14.939045   1.000000
    2      -14.903984   1.000000
    3      -14.647933   1.000000
    4      -14.608208   1.000000
    5       -8.034132   1.000000
    6       -7.987995   1.000000
    7       -7.217850   1.000000
    8       -7.145560   1.000000
    9       -6.668940   1.000000
   10       -6.504991   1.000000
   11       -5.552097   1.000000
   12       -5.518491   1.000000
   13       -4.605755   1.000000
   14       -4.296825   1.000000
   15       -3.904833   1.000000
   16       -3.772918   1.000000
   17       -3.198385   1.000000
   18       -3.147315   1.000000
   19       -1.361677   0.000000
   20       -1.332649   0.000000
   21       -0.960594   0.000000
   22       -0.890304   0.000000
   23        0.538752   0.000000
   24        0.853374   0.000000
   25        1.009825   0.000000
   26        1.145996   0.000000
 
  0.4615384E+00  0.7692300E-01  0.0000000E+00  0.1250000E-01
    1      -14.933985   1.000000
    2      -14.898943   1.000000
    3      -14.644216   1.000000
    4      -14.604547   1.000000
    5       -8.016632   1.000000
    6       -7.970590   1.000000
    7       -7.225101   1.000000
    8       -7.155075   1.000000
    9       -6.663979   1.000000
   10       -6.499658   1.000000
   11       -5.559141   1.000000
   12       -5.520250   1.000000
   13       -4.601508   1.000000
   14       -4.296957   1.000000
   15       -3.964426   1.000000
   16       -3.837545   1.000000
   17       -3.201993   1.000000
   18       -3.148894   1.000000
   19       -1.364356   0.000000
   20       -1.333470   0.000000
   21       -0.947549   0.000000
   22       -0.872863   0.000000
   23        0.551025   0.000000
   24        0.850586   0.000000
   25        0.953932   0.000000
   26        1.109394   0.000000
 
  0.4572649E+00  0.8547000E-01  0.0000000E+00  0.1250000E-01
    1      -14.928401   1.000000
    2      -14.893379   1.000000
    3      -14.640115   1.000000
    4      -14.600498   1.000000
    5       -7.997142   1.000000
    6       -7.951199   1.000000
    7       -7.233290   1.000000
    8       -7.165690   1.000000
    9       -6.658487   1.000000
   10       -6.493719   1.000000
   11       -5.565981   1.000000
   12       -5.521549   1.000000
   13       -4.597776   1.000000
   14       -4.298174   1.000000
   15       -4.029133   1.000000
   16       -3.906335   1.000000
   17       -3.205648   1.000000
   18       -3.151083   1.000000
   19       -1.368399   0.000000
   20       -1.336121   0.000000
   21       -0.932117   0.000000
   22       -0.852406   0.000000
   23        0.562366   0.000000
   24        0.839225   0.000000
   25        0.897752   0.000000
   26        1.080126   0.000000
 
  0.4529914E+00  0.9401700E-01  0.0000000E+00  0.1250000E-01
    1      -14.922320   1.000000
    2      -14.887320   1.000000
    3      -14.635652   1.000000
    4      -14.596101   1.000000
    5       -7.975696   1.000000
    6       -7.929866   1.000000
    7       -7.242435   1.000000
    8       -7.177398   1.000000
    9       -6.652510   1.000000
   10       -6.487262   1.000000
   11       -5.572449   1.000000
   12       -5.522327   1.000000
   13       -4.594883   1.000000
   14       -4.301148   1.000000
   15       -4.098396   1.000000
   16       -3.978342   1.000000
   17       -3.209232   1.000000
   18       -3.153742   1.000000
   19       -1.374018   0.000000
   20       -1.340793   0.000000
   21       -0.914298   0.000000
   22       -0.828943   0.000000
   23        0.570520   0.000000
   24        0.815950   0.000000
   25        0.844196   0.000000
   26        1.062094   0.000000
 
  0.4487178E+00  0.1025640E+00  0.0000000E+00  0.1250000E-01
    1      -14.915768   1.000000
    2      -14.880788   1.000000
    3      -14.630858   1.000000
    4      -14.591377   1.000000
    5       -7.952316   1.000000
    6       -7.906607   1.000000
    7       -7.252554   1.000000
    8       -7.190170   1.000000
    9       -6.646060   1.000000
   10       -6.480327   1.000000
   11       -5.578255   1.000000
   12       -5.522384   1.000000
   13       -4.593254   1.000000
   14       -4.307103   1.000000
   15       -4.171550   1.000000
   16       -4.052023   1.000000
   17       -3.212604   1.000000
   18       -3.156664   1.000000
   19       -1.381346   0.000000
   20       -1.347563   0.000000
   21       -0.894104   0.000000
   22       -0.802551   0.000000
   23        0.571155   0.000000
   24        0.780517   0.000000
   25        0.798263   0.000000
   26        1.056153   0.000000
 
  0.4444443E+00  0.1111110E+00  0.0000000E+00  0.1250000E-01
    1      -14.908775   1.000000
    2      -14.873822   1.000000
    3      -14.625741   1.000000
    4      -14.586330   1.000000
    5       -7.927036   1.000000
    6       -7.881460   1.000000
    7       -7.263610   1.000000
    8       -7.203951   1.000000
    9       -6.639141   1.000000
   10       -6.472938   1.000000
   11       -5.583211   1.000000
   12       -5.521618   1.000000
   13       -4.593462   1.000000
   14       -4.318793   1.000000
   15       -4.247715   1.000000
   16       -4.124330   1.000000
   17       -3.215603   1.000000
   18       -3.159668   1.000000
   19       -1.390366   0.000000
   20       -1.356471   0.000000
   21       -0.871551   0.000000
   22       -0.773424   0.000000
   23        0.557636   0.000000
   24        0.735769   0.000000
   25        0.767157   0.000000
   26        1.059994   0.000000
 
  0.4401708E+00  0.1196580E+00  0.0000000E+00  0.1250000E-01
    1      -14.901366   1.000000
    2      -14.866440   1.000000
    3      -14.620323   1.000000
    4      -14.580988   1.000000
    5       -7.899883   1.000000
    6       -7.854453   1.000000
    7       -7.275585   1.000000
    8       -7.218683   1.000000
    9       -6.631782   1.000000
   10       -6.465108   1.000000
   11       -5.587108   1.000000
   12       -5.519847   1.000000
   13       -4.596576   1.000000
   14       -4.342748   1.000000
   15       -4.325553   1.000000
   16       -4.188417   1.000000
   17       -3.218082   1.000000
   18       -3.162507   1.000000
   19       -1.401100   0.000000
   20       -1.367417   0.000000
   21       -0.846757   0.000000
   22       -0.741742   0.000000
   23        0.525873   0.000000
   24        0.685272   0.000000
   25        0.755455   0.000000
   26        1.070535   0.000000
 
  0.4358973E+00  0.1282050E+00  0.0000000E+00  0.1250000E-01
    1      -14.893584   1.000000
    2      -14.858691   1.000000
    3      -14.614647   1.000000
    4      -14.575402   1.000000
    5       -7.870904   1.000000
    6       -7.825631   1.000000
    7       -7.288468   1.000000
    8       -7.234325   1.000000
    9       -6.624042   1.000000
   10       -6.456923   1.000000
   11       -5.589818   1.000000
   12       -5.517038   1.000000
   13       -4.604990   1.000000
   14       -4.402418   1.000000
   15       -4.389106   1.000000
   16       -4.233910   1.000000
   17       -3.219963   1.000000
   18       -3.165063   1.000000
   19       -1.413556   0.000000
   20       -1.380382   0.000000
   21       -0.819938   0.000000
   22       -0.707841   0.000000
   23        0.479741   0.000000
   24        0.631669   0.000000
   25        0.759604   0.000000
   26        1.085427   0.000000
 
  0.4316238E+00  0.1367520E+00  0.0000000E+00  0.1250000E-01
    1      -14.885464   1.000000
    2      -14.850601   1.000000
    3      -14.608722   1.000000
    4      -14.569565   1.000000
    5       -7.840134   1.000000
    6       -7.795027   1.000000
    7       -7.302183   1.000000
    8       -7.250784   1.000000
    9       -6.615927   1.000000
   10       -6.448389   1.000000
   11       -5.591160   1.000000
   12       -5.513072   1.000000
   13       -4.624763   1.000000
   14       -4.471931   1.000000
   15       -4.458273   1.000000
   16       -4.260061   1.000000
   17       -3.221075   1.000000
   18       -3.167113   1.000000
   19       -1.427610   0.000000
   20       -1.395194   0.000000
   21       -0.791206   0.000000
   22       -0.671948   0.000000
   23        0.425998   0.000000
   24        0.576771   0.000000
   25        0.773260   0.000000
   26        1.103253   0.000000
 
  0.4273503E+00  0.1452990E+00  0.0000000E+00  0.1250000E-01
    1      -14.877049   1.000000
    2      -14.842217   1.000000
    3      -14.602603   1.000000
    4      -14.563530   1.000000
    5       -7.807626   1.000000
    6       -7.762697   1.000000
    7       -7.316716   1.000000
    8       -7.267986   1.000000
    9       -6.607489   1.000000
   10       -6.439575   1.000000
   11       -5.591062   1.000000
   12       -5.507896   1.000000
   13       -4.667504   1.000000
   14       -4.540481   1.000000
   15       -4.522217   1.000000
   16       -4.276372   1.000000
   17       -3.221346   1.000000
   18       -3.168519   1.000000
   19       -1.443210   0.000000
   20       -1.411757   0.000000
   21       -0.760821   0.000000
   22       -0.634393   0.000000
   23        0.369114   0.000000
   24        0.521753   0.000000
   25        0.792084   0.000000
   26        1.123036   0.000000
 
  0.4230768E+00  0.1538460E+00  0.0000000E+00  0.1250000E-01
    1      -14.868374   1.000000
    2      -14.833578   1.000000
    3      -14.596308   1.000000
    4      -14.557319   1.000000
    5       -7.773422   1.000000
    6       -7.728684   1.000000
    7       -7.331964   1.000000
    8       -7.285816   1.000000
    9       -6.598734   1.000000
   10       -6.430521   1.000000
   11       -5.589401   1.000000
   12       -5.501419   1.000000
   13       -4.736100   1.000000
   14       -4.629043   1.000000
   15       -4.550077   1.000000
   16       -4.289217   1.000000
   17       -3.220654   1.000000
   18       -3.169126   1.000000
   19       -1.460235   0.000000
   20       -1.429884   0.000000
   21       -0.728972   0.000000
   22       -0.595452   0.000000
   23        0.311579   0.000000
   24        0.467499   0.000000
   25        0.813867   0.000000
   26        1.144161   0.000000
 
  0.4188033E+00  0.1623930E+00  0.0000000E+00  0.1250000E-01
    1      -14.859493   1.000000
    2      -14.824728   1.000000
    3      -14.589867   1.000000
    4      -14.550971   1.000000
    5       -7.737586   1.000000
    6       -7.693042   1.000000
    7       -7.347840   1.000000
    8       -7.304180   1.000000
    9       -6.589727   1.000000
   10       -6.421269   1.000000
   11       -5.586109   1.000000
   12       -5.493646   1.000000
   13       -4.819199   1.000000
   14       -4.720986   1.000000
   15       -4.566571   1.000000
   16       -4.301268   1.000000
   17       -3.218948   1.000000
   18       -3.168780   1.000000
   19       -1.478581   0.000000
   20       -1.449410   0.000000
   21       -0.695916   0.000000
   22       -0.555370   0.000000
   23        0.254754   0.000000
   24        0.414540   0.000000
   25        0.837392   0.000000
   26        1.166176   0.000000
 
  0.4145297E+00  0.1709400E+00  0.0000000E+00  0.1250000E-01
    1      -14.850449   1.000000
    2      -14.815717   1.000000
    3      -14.583317   1.000000
    4      -14.544516   1.000000
    5       -7.700177   1.000000
    6       -7.655838   1.000000
    7       -7.364235   1.000000
    8       -7.322938   1.000000
    9       -6.580470   1.000000
   10       -6.411908   1.000000
   11       -5.581150   1.000000
   12       -5.484551   1.000000
   13       -4.908705   1.000000
   14       -4.814870   1.000000
   15       -4.579465   1.000000
   16       -4.313648   1.000000
   17       -3.216154   1.000000
   18       -3.167443   1.000000
   19       -1.498094   0.000000
   20       -1.470209   0.000000
   21       -0.661860   0.000000
   22       -0.514485   0.000000
   23        0.199467   0.000000
   24        0.363396   0.000000
   25        0.861933   0.000000
   26        1.188737   0.000000
 
  0.4102562E+00  0.1794870E+00  0.0000000E+00  0.1250000E-01
    1      -14.841287   1.000000
    2      -14.806593   1.000000
    3      -14.576703   1.000000
    4      -14.538001   1.000000
    5       -7.661282   1.000000
    6       -7.617145   1.000000
    7       -7.381030   1.000000
    8       -7.341976   1.000000
    9       -6.571024   1.000000
   10       -6.402491   1.000000
   11       -5.574514   1.000000
   12       -5.474164   1.000000
   13       -5.001277   1.000000
   14       -4.909818   1.000000
   15       -4.591791   1.000000
   16       -4.326906   1.000000
   17       -3.212279   1.000000
   18       -3.165037   1.000000
   19       -1.518691   0.000000
   20       -1.492139   0.000000
   21       -0.627096   0.000000
   22       -0.473079   0.000000
   23        0.146265   0.000000
   24        0.314379   0.000000
   25        0.886986   0.000000
   26        1.211536   0.000000
 
  0.4059827E+00  0.1880340E+00  0.0000000E+00  0.1250000E-01
    1      -14.832067   1.000000
    2      -14.797414   1.000000
    3      -14.570066   1.000000
    4      -14.531456   1.000000
    5       -7.621002   1.000000
    6       -7.577059   1.000000
    7       -7.398088   1.000000
    8       -7.361132   1.000000
    9       -6.561421   1.000000
   10       -6.393101   1.000000
   11       -5.566240   1.000000
   12       -5.462517   1.000000
   13       -5.095386   1.000000
   14       -5.005200   1.000000
   15       -4.604744   1.000000
   16       -4.341290   1.000000
   17       -3.207276   1.000000
   18       -3.161533   1.000000
   19       -1.540188   0.000000
   20       -1.515037   0.000000
   21       -0.591815   0.000000
   22       -0.431442   0.000000
   23        0.095500   0.000000
   24        0.267772   0.000000
   25        0.912170   0.000000
   26        1.234352   0.000000
 
  0.4017092E+00  0.1965810E+00  0.0000000E+00  0.1250000E-01
    1      -14.822830   1.000000
    2      -14.788227   1.000000
    3      -14.563430   1.000000
    4      -14.524916   1.000000
    5       -7.579492   1.000000
    6       -7.535713   1.000000
    7       -7.415153   1.000000
    8       -7.380185   1.000000
    9       -6.551682   1.000000
   10       -6.383804   1.000000
   11       -5.556348   1.000000
   12       -5.449676   1.000000
   13       -5.190113   1.000000
   14       -5.100448   1.000000
   15       -4.618820   1.000000
   16       -4.356919   1.000000
   17       -3.201125   1.000000
   18       -3.156855   1.000000
   19       -1.562412   0.000000
   20       -1.538674   0.000000
   21       -0.556236   0.000000
   22       -0.389783   0.000000
   23        0.047520   0.000000
   24        0.223849   0.000000
   25        0.937252   0.000000
   26        1.256983   0.000000
 
  0.3974357E+00  0.2051280E+00  0.0000000E+00  0.1250000E-01
    1      -14.813649   1.000000
    2      -14.779081   1.000000
    3      -14.556839   1.000000
    4      -14.518427   1.000000
    5       -7.537124   1.000000
    6       -7.493420   1.000000
    7       -7.431827   1.000000
    8       -7.398795   1.000000
    9       -6.541860   1.000000
   10       -6.374671   1.000000
   11       -5.545054   1.000000
   12       -5.435910   1.000000
   13       -5.284712   1.000000
   14       -5.194934   1.000000
   15       -4.634277   1.000000
   16       -4.373855   1.000000
   17       -3.193902   1.000000
   18       -3.151029   1.000000
   19       -1.585204   0.000000
   20       -1.562887   0.000000
   21       -0.520639   0.000000
   22       -0.348382   0.000000
   23        0.002512   0.000000
   24        0.182696   0.000000
   25        0.961967   0.000000
   26        1.279202   0.000000
 
  0.3931622E+00  0.2136750E+00  0.0000000E+00  0.1250000E-01
    1      -14.804576   1.000000
    2      -14.770052   1.000000
    3      -14.550344   1.000000
    4      -14.512029   1.000000
    5       -7.495670   1.000000
    6       -7.452123   1.000000
    7       -7.446301   1.000000
    8       -7.414974   1.000000
    9       -6.531985   1.000000
   10       -6.365848   1.000000
   11       -5.533005   1.000000
   12       -5.421987   1.000000
   13       -5.378113   1.000000
   14       -5.287521   1.000000
   15       -4.651216   1.000000
   16       -4.392069   1.000000
   17       -3.185678   1.000000
   18       -3.144137   1.000000
   19       -1.608356   0.000000
   20       -1.587466   0.000000
   21       -0.485285   0.000000
   22       -0.307583   0.000000
   23       -0.039379   0.000000
   24        0.144470   0.000000
   25        0.986072   0.000000
   26        1.300849   0.000000
 
  0.3888887E+00  0.2222220E+00  0.0000000E+00  0.1250000E-01
    1      -14.795674   1.000000
    2      -14.761189   1.000000
    3      -14.543977   1.000000
    4      -14.505765   1.000000
    5       -7.475930   1.000000
    6       -7.441506   1.000000
    7       -7.437746   1.000000
    8       -7.399015   1.000000
    9       -6.522107   1.000000
   10       -6.357441   1.000000
   11       -5.525363   1.000000
   12       -5.464800   1.000000
   13       -5.416329   1.000000
   14       -5.369428   1.000000
   15       -4.669659   1.000000
   16       -4.411501   1.000000
   17       -3.176530   1.000000
   18       -3.136208   1.000000
   19       -1.631680   0.000000
   20       -1.612205   0.000000
   21       -0.450425   0.000000
   22       -0.267621   0.000000
   23       -0.078039   0.000000
   24        0.109260   0.000000
   25        1.009383   0.000000
   26        1.321743   0.000000
 
  0.3846152E+00  0.2307690E+00  0.0000000E+00  0.1250000E-01
    1      -14.787002   1.000000
    2      -14.752556   1.000000
    3      -14.537786   1.000000
    4      -14.499676   1.000000
    5       -7.487896   1.000000
    6       -7.457312   1.000000
    7       -7.396142   1.000000
    8       -7.355138   1.000000
    9       -6.512269   1.000000
   10       -6.349651   1.000000
   11       -5.576006   1.000000
   12       -5.490573   1.000000
   13       -5.479971   1.000000
   14       -5.379231   1.000000
   15       -4.689559   1.000000
   16       -4.432036   1.000000
   17       -3.166587   1.000000
   18       -3.127367   1.000000
   19       -1.654944   0.000000
   20       -1.636860   0.000000
   21       -0.416348   0.000000
   22       -0.228832   0.000000
   23       -0.113377   0.000000
   24        0.077170   0.000000
   25        1.031739   0.000000
   26        1.341747   0.000000
 
  0.3803416E+00  0.2393160E+00  0.0000000E+00  0.1250000E-01
    1      -14.778627   1.000000
    2      -14.744223   1.000000
    3      -14.531824   1.000000
    4      -14.493802   1.000000
    5       -7.503114   1.000000
    6       -7.474135   1.000000
    7       -7.349986   1.000000
    8       -7.308780   1.000000
    9       -6.502523   1.000000
   10       -6.342719   1.000000
   11       -5.663503   1.000000
   12       -5.566094   1.000000
   13       -5.476575   1.000000
   14       -5.363351   1.000000
   15       -4.710849   1.000000
   16       -4.453522   1.000000
   17       -3.156005   1.000000
   18       -3.117796   1.000000
   19       -1.677886   0.000000
   20       -1.661201   0.000000
   21       -0.383370   0.000000
   22       -0.191591   0.000000
   23       -0.145337   0.000000
   24        0.048287   0.000000
   25        1.052927   0.000000
   26        1.360712   0.000000
 
  0.3760681E+00  0.2478630E+00  0.0000000E+00  0.1250000E-01
    1      -14.770624   1.000000
    2      -14.736254   1.000000
    3      -14.526130   1.000000
    4      -14.488202   1.000000
    5       -7.518274   1.000000
    6       -7.490459   1.000000
    7       -7.302640   1.000000
    8       -7.261521   1.000000
    9       -6.492959   1.000000
   10       -6.336982   1.000000
   11       -5.751962   1.000000
   12       -5.650938   1.000000
   13       -5.458396   1.000000
   14       -5.345054   1.000000
   15       -4.733385   1.000000
   16       -4.475767   1.000000
   17       -3.145048   1.000000
   18       -3.107683   1.000000
   19       -1.700286   0.000000
   20       -1.684925   0.000000
   21       -0.351940   0.000000
   22       -0.173805   0.000000
   23       -0.156344   0.000000
   24        0.022698   0.000000
   25        1.072831   0.000000
   26        1.378505   0.000000
 
  0.3717946E+00  0.2564100E+00  0.0000000E+00  0.1250000E-01
    1      -14.763048   1.000000
    2      -14.728713   1.000000
    3      -14.520743   1.000000
    4      -14.482902   1.000000
    5       -7.532808   1.000000
    6       -7.505937   1.000000
    7       -7.254753   1.000000
    8       -7.213798   1.000000
    9       -6.483655   1.000000
   10       -6.332914   1.000000
   11       -5.838550   1.000000
   12       -5.732303   1.000000
   13       -5.438496   1.000000
   14       -5.325860   1.000000
   15       -4.756976   1.000000
   16       -4.498510   1.000000
   17       -3.133879   1.000000
   18       -3.097233   1.000000
   19       -1.721748   0.000000
   20       -1.707698   0.000000
   21       -0.322564   0.000000
   22       -0.198498   0.000000
   23       -0.123759   0.000000
   24        0.000809   0.000000
   25        1.091331   0.000000
   26        1.395032   0.000000
 
  0.3675211E+00  0.2649570E+00  0.0000000E+00  0.1250000E-01
    1      -14.755974   1.000000
    2      -14.721664   1.000000
    3      -14.515707   1.000000
    4      -14.477953   1.000000
    5       -7.546464   1.000000
    6       -7.520386   1.000000
    7       -7.206769   1.000000
    8       -7.165981   1.000000
    9       -6.474776   1.000000
   10       -6.331206   1.000000
   11       -5.922287   1.000000
   12       -5.808807   1.000000
   13       -5.417468   1.000000
   14       -5.306289   1.000000
   15       -4.781390   1.000000
   16       -4.521455   1.000000
   17       -3.122814   1.000000
   18       -3.086719   1.000000
   19       -1.741985   0.000000
   20       -1.729165   0.000000
   21       -0.296490   0.000000
   22       -0.218575   0.000000
   23       -0.095349   0.000000
   24       -0.016259   0.000000
   25        1.108310   0.000000
   26        1.410175   0.000000
 
  0.3632476E+00  0.2735040E+00  0.0000000E+00  0.1250000E-01
    1      -14.749473   1.000000
    2      -14.715195   1.000000
    3      -14.511088   1.000000
    4      -14.473411   1.000000
    5       -7.559105   1.000000
    6       -7.533660   1.000000
    7       -7.159172   1.000000
    8       -7.118534   1.000000