    6    6    1    1
  0.7965567E+02  0.3322260E-09  0.3322260E-09  0.5000000E-08  0.5000000E-15
  1.000000000000000E-004
  CAR 
 (MoSe2)2                                
     36    120     26
 
  0.0000000E+00  0.0000000E+00  0.0000000E+00  0.8333333E-02
    1      -17.151245   1.000000
    2      -17.108273   1.000000
    3      -16.220707   1.000000
    4      -16.155933   1.000000
    5       -8.438647   1.000000
    6       -8.177569   1.000000
    7       -5.114837   1.000000
    8       -5.090664   1.000000
    9       -5.090270   1.000000
   10       -4.976794   1.000000
   11       -4.974796   1.000000
   12       -4.423274   1.000000
   13       -4.191110   1.000000
   14       -4.173733   1.000000
   15       -3.984126   1.000000
   16       -3.974592   1.000000
   17       -3.259252   1.000000
   18       -2.884830   1.000000
   19       -0.147556   0.000000
   20       -0.111109   0.000000
   21       -0.102838   0.000000
   22       -0.067965   0.000000
   23        0.076683   0.000000
   24        0.118759   0.000000
   25        0.136632   0.000000
   26        0.179015   0.000000
 
  0.1282051E-01  0.0000000E+00  0.0000000E+00  0.8333333E-02
    1      -17.149116   1.000000
    2      -17.106143   1.000000
    3      -16.219434   1.000000
    4      -16.154675   1.000000
    5       -8.435852   1.000000
    6       -8.174763   1.000000
    7       -5.120169   1.000000
    8       -5.089708   1.000000
    9       -5.088222   1.000000
   10       -4.983137   1.000000
   11       -4.981009   1.000000
   12       -4.450498   1.000000
   13       -4.187447   1.000000
   14       -4.149908   1.000000
   15       -3.988176   1.000000
   16       -3.978360   1.000000
   17       -3.259201   1.000000
   18       -2.885786   1.000000
   19       -0.156400   0.000000
   20       -0.119250   0.000000
   21       -0.099127   0.000000
   22       -0.064123   0.000000
   23        0.073162   0.000000
   24        0.115185   0.000000
   25        0.123801   0.000000
   26        0.169048   0.000000
 
  0.2564103E-01  0.0000000E+00  0.0000000E+00  0.8333333E-02
    1      -17.142726   1.000000
    2      -17.099754   1.000000
    3      -16.215596   1.000000
    4      -16.150911   1.000000
    5       -8.427517   1.000000
    6       -8.166325   1.000000
    7       -5.137813   1.000000
    8       -5.084922   1.000000
    9       -5.082052   1.000000
   10       -5.001913   1.000000
   11       -4.999369   1.000000
   12       -4.513694   1.000000
   13       -4.176930   1.000000
   14       -4.097550   1.000000
   15       -4.000174   1.000000
   16       -3.989020   1.000000
   17       -3.259140   1.000000
   18       -2.888613   1.000000
   19       -0.182340   0.000000
   20       -0.143142   0.000000
   21       -0.088117   0.000000
   22       -0.052724   0.000000
   23        0.061821   0.000000
   24        0.087365   0.000000
   25        0.104339   0.000000
   26        0.140307   0.000000
 
  0.3846154E-01  0.0000000E+00  0.0000000E+00  0.8333333E-02
    1      -17.132090   1.000000
    2      -17.089121   1.000000
    3      -16.209211   1.000000
    4      -16.144663   1.000000
    5       -8.413686   1.000000
    6       -8.152296   1.000000
    7       -5.167667   1.000000
    8       -5.076413   1.000000
    9       -5.072991   1.000000
   10       -5.031729   1.000000
   11       -5.028361   1.000000
   12       -4.592170   1.000000
   13       -4.161135   1.000000
   14       -4.044716   1.000000
   15       -4.019757   1.000000
   16       -3.999269   1.000000
   17       -3.259206   1.000000
   18       -2.893449   1.000000
   19       -0.223737   0.000000
   20       -0.181214   0.000000
   21       -0.070386   0.000000
   22       -0.034174   0.000000
   23        0.022301   0.000000
   24        0.051237   0.000000
   25        0.081971   0.000000
   26        0.099528   0.000000
 
  0.5128205E-01  0.0000000E+00  0.0000000E+00  0.8333333E-02
    1      -17.117255   1.000000
    2      -17.074285   1.000000
    3      -16.200306   1.000000
    4      -16.135943   1.000000
    5       -8.394442   1.000000
    6       -8.132783   1.000000
    7       -5.207862   1.000000
    8       -5.084388   1.000000
    9       -5.081246   1.000000
   10       -5.052343   1.000000
   11       -5.047561   1.000000
   12       -4.677762   1.000000
   13       -4.142588   1.000000
   14       -4.046576   1.000000
   15       -4.046018   1.000000
   16       -3.962269   1.000000
   17       -3.259665   1.000000
   18       -2.900642   1.000000
   19       -0.278102   0.000000
   20       -0.231064   0.000000
   21       -0.054582   0.000000
   22       -0.046467   0.000000
   23       -0.009602   0.000000
   24        0.028356   0.000000
   25        0.029231   0.000000
   26        0.070411   0.000000
 
  0.6410256E-01  0.0000000E+00  0.0000000E+00  0.8333333E-02
    1      -17.098259   1.000000
    2      -17.055293   1.000000
    3      -16.188906   1.000000
    4      -16.124782   1.000000
    5       -8.369888   1.000000
    6       -8.107895   1.000000
    7       -5.256603   1.000000
    8       -5.134981   1.000000
    9       -5.130966   1.000000
   10       -5.037095   1.000000
   11       -5.032203   1.000000
   12       -4.767397   1.000000
   13       -4.126320   1.000000
   14       -4.078069   1.000000
   15       -4.075757   1.000000
   16       -3.906294   1.000000
   17       -3.260836   1.000000
   18       -2.910537   1.000000
   19       -0.342444   0.000000
   20       -0.289695   0.000000
   21       -0.143652   0.000000
   22       -0.042634   0.000000
   23       -0.030095   0.000000
   24        0.014361   0.000000
   25        0.014848   0.000000
   26        0.048639   0.000000
 
  0.7692308E-01  0.0000000E+00  0.0000000E+00  0.8333333E-02
    1      -17.075160   1.000000
    2      -17.032195   1.000000
    3      -16.175052   1.000000
    4      -16.111219   1.000000
    5       -8.340170   1.000000
    6       -8.077801   1.000000
    7       -5.312335   1.000000
    8       -5.199291   1.000000
    9       -5.194528   1.000000
   10       -5.014281   1.000000
   11       -5.009227   1.000000
   12       -4.859736   1.000000
   13       -4.135156   1.000000
   14       -4.117920   1.000000
   15       -4.087604   1.000000
   16       -3.854159   1.000000
   17       -3.263154   1.000000
   18       -2.923640   1.000000
   19       -0.413557   0.000000
   20       -0.353872   0.000000
   21       -0.242271   0.000000
   22       -0.120937   0.000000
   23       -0.048365   0.000000
   24       -0.001700   0.000000
   25        0.035540   0.000000
   26        0.068535   0.000000
 
  0.8974359E-01  0.0000000E+00  0.0000000E+00  0.8333333E-02
    1      -17.048030   1.000000
    2      -17.005071   1.000000
    3      -16.158788   1.000000
    4      -16.095297   1.000000
    5       -8.305473   1.000000
    6       -8.042698   1.000000
    7       -5.373877   1.000000
    8       -5.273520   1.000000
    9       -5.268118   1.000000
   10       -4.986951   1.000000
   11       -4.982112   1.000000
   12       -4.953757   1.000000
   13       -4.175845   1.000000
   14       -4.163907   1.000000
   15       -4.076221   1.000000
   16       -3.809045   1.000000
   17       -3.267162   1.000000
   18       -2.940497   1.000000
   19       -0.488709   0.000000
   20       -0.420407   0.000000
   21       -0.344768   0.000000
   22       -0.202729   0.000000
   23       -0.084533   0.000000
   24       -0.039009   0.000000
   25        0.074743   0.000000
   26        0.109541   0.000000
 
  0.1025641E+00  0.0000000E+00  0.0000000E+00  0.8333333E-02
    1      -17.016955   1.000000
    2      -16.974004   1.000000
    3      -16.140173   1.000000
    4      -16.077074   1.000000
    5       -8.266032   1.000000
    6       -8.002836   1.000000
    7       -5.440377   1.000000
    8       -5.356325   1.000000
    9       -5.350453   1.000000
   10       -5.050534   1.000000
   11       -4.955592   1.000000
   12       -4.949862   1.000000
   13       -4.225844   1.000000
   14       -4.215030   1.000000
   15       -4.065171   1.000000
   16       -3.772600   1.000000
   17       -3.273485   1.000000
   18       -2.961699   1.000000
   19       -0.566333   0.000000
   20       -0.486620   0.000000
   21       -0.445825   0.000000
   22       -0.284048   0.000000
   23       -0.126919   0.000000
   24       -0.081936   0.000000
   25        0.120057   0.000000
   26        0.156194   0.000000
 
  0.1153846E+00  0.0000000E+00  0.0000000E+00  0.8333333E-02
    1      -16.982032   1.000000
    2      -16.939097   1.000000
    3      -16.119274   1.000000
    4      -16.056616   1.000000
    5       -8.222128   1.000000
    6       -7.958531   1.000000
    7       -5.511476   1.000000
    8       -5.446395   1.000000
    9       -5.440520   1.000000
   10       -5.148089   1.000000
   11       -4.920453   1.000000
   12       -4.914519   1.000000
   13       -4.280929   1.000000
   14       -4.270463   1.000000
   15       -4.059448   1.000000
   16       -3.745972   1.000000
   17       -3.282801   1.000000
   18       -2.987862   1.000000
   19       -0.647258   0.000000
   20       -0.550717   0.000000
   21       -0.538549   0.000000
   22       -0.360779   0.000000
   23       -0.173403   0.000000
   24       -0.128749   0.000000
   25        0.169191   0.000000
   26        0.206566   0.000000
 
  0.1282051E+00  0.0000000E+00  0.0000000E+00  0.8333333E-02
    1      -16.943382   1.000000
    2      -16.900466   1.000000
    3      -16.096165   1.000000
    4      -16.033998   1.000000
    5       -8.174099   1.000000
    6       -7.910155   1.000000
    7       -5.587665   1.000000
    8       -5.541671   1.000000
    9       -5.537241   1.000000
   10       -5.247126   1.000000
   11       -4.881757   1.000000
   12       -4.875530   1.000000
   13       -4.339821   1.000000
   14       -4.329461   1.000000
   15       -4.060737   1.000000
   16       -3.730030   1.000000
   17       -3.295777   1.000000
   18       -3.019439   1.000000
   19       -0.733567   0.000000
   20       -0.615417   0.000000
   21       -0.612228   0.000000
   22       -0.428256   0.000000
   23       -0.222978   0.000000
   24       -0.178601   0.000000
   25        0.220998   0.000000
   26        0.259639   0.000000
 
  0.1410256E+00  0.0000000E+00  0.0000000E+00  0.8333333E-02
    1      -16.901132   1.000000
    2      -16.858240   1.000000
    3      -16.070932   1.000000
    4      -16.009306   1.000000
    5       -8.122355   1.000000
    6       -7.858184   1.000000
    7       -5.672377   1.000000
    8       -5.639598   1.000000
    9       -5.637417   1.000000
   10       -5.347535   1.000000
   11       -4.839745   1.000000
   12       -4.833144   1.000000
   13       -4.401660   1.000000
   14       -4.391286   1.000000
   15       -4.069979   1.000000
   16       -3.725214   1.000000
   17       -3.313048   1.000000
   18       -3.056806   1.000000
   19       -0.823680   0.000000
   20       -0.673472   0.000000
   21       -0.671717   0.000000
   22       -0.481705   0.000000
   23       -0.274841   0.000000
   24       -0.230728   0.000000
   25        0.274590   0.000000
   26        0.314580   0.000000
 
  0.1538462E+00  0.0000000E+00  0.0000000E+00  0.8333333E-02
    1      -16.855432   1.000000
    2      -16.812572   1.000000
    3      -16.043674   1.000000
    4      -15.982637   1.000000
    5       -8.067388   1.000000
    6       -7.803181   1.000000
    7       -5.771291   1.000000
    8       -5.746533   1.000000
    9       -5.726751   1.000000
   10       -5.449332   1.000000
   11       -4.794703   1.000000
   12       -4.787651   1.000000
   13       -4.465750   1.000000
   14       -4.455327   1.000000
   15       -4.087617   1.000000
   16       -3.731598   1.000000
   17       -3.335090   1.000000
   18       -3.099986   1.000000
   19       -0.912480   0.000000
   20       -0.729658   0.000000
   21       -0.714191   0.000000
   22       -0.517604   0.000000
   23       -0.328285   0.000000
   24       -0.284452   0.000000
   25        0.329175   0.000000
   26        0.370611   0.000000
 
  0.1666667E+00  0.0000000E+00  0.0000000E+00  0.8333333E-02
    1      -16.806450   1.000000
    2      -16.763627   1.000000
    3      -16.014501   1.000000
    4      -15.954091   1.000000
    5       -8.009758   1.000000
    6       -7.745856   1.000000
    7       -5.880576   1.000000
    8       -5.856941   1.000000
    9       -5.812282   1.000000
   10       -5.552476   1.000000
   11       -4.746868   1.000000
   12       -4.739292   1.000000
   13       -4.531388   1.000000
   14       -4.520903   1.000000
   15       -4.113590   1.000000
   16       -3.748773   1.000000
   17       -3.362157   1.000000
   18       -3.148723   1.000000
   19       -0.995607   0.000000
   20       -0.785142   0.000000
   21       -0.739152   0.000000
   22       -0.534812   0.000000
   23       -0.382622   0.000000
   24       -0.339100   0.000000
   25        0.384086   0.000000
   26        0.427079   0.000000
 
  0.1794872E+00  0.0000000E+00  0.0000000E+00  0.8333333E-02
    1      -16.754372   1.000000
    2      -16.711586   1.000000
    3      -15.983532   1.000000
    4      -15.923802   1.000000
    5       -7.950211   1.000000
    6       -7.687083   1.000000
    7       -5.994863   1.000000
    8       -5.969630   1.000000
    9       -5.898291   1.000000
   10       -5.656991   1.000000
   11       -4.696761   1.000000
   12       -4.688389   1.000000
   13       -4.597852   1.000000
   14       -4.587483   1.000000
   15       -4.147400   1.000000
   16       -3.775907   1.000000
   17       -3.394354   1.000000
   18       -3.202398   1.000000
   19       -1.070356   0.000000
   20       -0.836354   0.000000
   21       -0.749359   0.000000
   22       -0.534378   0.000000
   23       -0.437234   0.000000
   24       -0.393981   0.000000
   25        0.438705   0.000000
   26        0.483322   0.000000
 
  0.1923077E+00  0.0000000E+00  0.0000000E+00  0.8333333E-02
    1      -16.699397   1.000000
    2      -16.656661   1.000000
    3      -15.950904   1.000000
    4      -15.891886   1.000000
    5       -7.889608   1.000000
    6       -7.628012   1.000000
    7       -6.111663   1.000000
    8       -6.083325   1.000000
    9       -5.986076   1.000000
   10       -5.762776   1.000000
   11       -4.667433   1.000000
   12       -4.654956   1.000000
   13       -4.641759   1.000000
   14       -4.634765   1.000000
   15       -4.188163   1.000000
   16       -3.811777   1.000000
   17       -3.431384   1.000000
   18       -3.260109   1.000000
   19       -1.135041   0.000000
   20       -0.881586   0.000000
   21       -0.745682   0.000000
   22       -0.518380   0.000000
   23       -0.491451   0.000000
   24       -0.448172   0.000000
   25        0.492489   0.000000
   26        0.538864   0.000000
 
  0.2051282E+00  0.0000000E+00  0.0000000E+00  0.8333333E-02
    1      -16.641748   1.000000
    2      -16.599075   1.000000
    3      -15.916767   1.000000
    4      -15.858496   1.000000
    5       -7.829058   1.000000
    6       -7.570152   1.000000
    7       -6.229412   1.000000
    8       -6.196490   1.000000
    9       -6.075937   1.000000
   10       -5.869763   1.000000
   11       -4.733019   1.000000
   12       -4.721687   1.000000
   13       -4.588993   1.000000
   14       -4.580013   1.000000
   15       -4.234686   1.000000
   16       -3.854898   1.000000
   17       -3.472669   1.000000
   18       -3.320697   1.000000
   19       -1.188769   0.000000
   20       -0.919790   0.000000
   21       -0.729174   0.000000
   22       -0.544759   0.000000
   23       -0.507264   0.000000
   24       -0.482749   0.000000
   25        0.544941   0.000000
   26        0.593181   0.000000
 
  0.2179487E+00  0.0000000E+00  0.0000000E+00  0.8333333E-02
    1      -16.581665   1.000000
    2      -16.539068   1.000000
    3      -15.881274   1.000000
    4      -15.823791   1.000000
    5       -7.769976   1.000000
    6       -7.515496   1.000000
    7       -6.346502   1.000000
    8       -6.307091   1.000000
    9       -6.167797   1.000000
   10       -5.977733   1.000000
   11       -4.799642   1.000000
   12       -4.788296   1.000000
   13       -4.533315   1.000000
   14       -4.523444   1.000000
   15       -4.285570   1.000000
   16       -3.903641   1.000000
   17       -3.517269   1.000000
   18       -3.382689   1.000000
   19       -1.231139   0.000000
   20       -0.950392   0.000000
   21       -0.701030   0.000000
   22       -0.596556   0.000000
   23       -0.556679   0.000000
   24       -0.443465   0.000000
   25        0.595684   0.000000
   26        0.645855   0.000000
 
  0.2307692E+00  0.0000000E+00  0.0000000E+00  0.8333333E-02
    1      -16.519424   1.000000
    2      -16.476920   1.000000
    3      -15.844611   1.000000
    4      -15.787937   1.000000
    5       -7.714234   1.000000
    6       -7.466894   1.000000
    7       -6.461120   1.000000
    8       -6.412539   1.000000
    9       -6.261559   1.000000
   10       -6.086420   1.000000
   11       -4.865528   1.000000
   12       -4.854059   1.000000
   13       -4.476542   1.000000
   14       -4.465748   1.000000
   15       -4.339352   1.000000
   16       -3.956350   1.000000
   17       -3.564002   1.000000
   18       -3.444594   1.000000
   19       -1.262222   0.000000
   20       -0.973447   0.000000
   21       -0.663602   0.000000
   22       -0.645423   0.000000
   23       -0.607136   0.000000
   24       -0.391252   0.000000
   25        0.644373   0.000000
   26        0.696568   0.000000
 
  0.2435897E+00  0.0000000E+00  0.0000000E+00  0.8333333E-02
    1      -16.455320   1.000000
    2      -16.412920   1.000000
    3      -15.806959   1.000000
    4      -15.751129   1.000000
    5       -7.664360   1.000000
    6       -7.428265   1.000000
    7       -6.570945   1.000000
    8       -6.509219   1.000000
    9       -6.356776   1.000000
   10       -6.195424   1.000000
   11       -4.930218   1.000000
   12       -4.918637   1.000000
   13       -4.419834   1.000000
   14       -4.407314   1.000000
   15       -4.393942   1.000000
   16       -4.011471   1.000000
   17       -3.611392   1.000000
   18       -3.504726   1.000000
   19       -1.282492   0.000000
   20       -0.989298   0.000000
   21       -0.694543   0.000000
   22       -0.655509   0.000000
   23       -0.614628   0.000000
   24       -0.330620   0.000000
   25        0.690775   0.000000
   26        0.745033   0.000000
 
  0.2564103E+00  0.0000000E+00  0.0000000E+00  0.8333333E-02
    1      -16.389684   1.000000
    2      -16.347393   1.000000
    3      -15.768526   1.000000
    4      -15.713565   1.000000
    5       -7.623842   1.000000
    6       -7.404898   1.000000
    7       -6.672917   1.000000
    8       -6.592388   1.000000
    9       -6.452917   1.000000
   10       -6.304149   1.000000
   11       -4.993425   1.000000
   12       -4.981676   1.000000
   13       -4.450909   1.000000
   14       -4.360833   1.000000
   15       -4.348622   1.000000
   16       -4.067601   1.000000
   17       -3.657851   1.000000
   18       -3.561441   1.000000
   19       -1.292726   0.000000
   20       -0.998528   0.000000
   21       -0.739178   0.000000
   22       -0.701227   0.000000
   23       -0.559927   0.000000
   24       -0.263424   0.000000
   25        0.734656   0.000000
   26        0.791046   0.000000
 
  0.2692308E+00  0.0000000E+00  0.0000000E+00  0.8333333E-02
    1      -16.322853   1.000000
    2      -16.280678   1.000000
    3      -15.729531   1.000000
    4      -15.675460   1.000000
    5       -7.597308   1.000000
    6       -7.402755   1.000000
    7       -6.763047   1.000000
    8       -6.656918   1.000000
    9       -6.549085   1.000000
   10       -6.411548   1.000000
   11       -5.054791   1.000000
   12       -5.042889   1.000000
   13       -4.505635   1.000000
   14       -4.303511   1.000000
   15       -4.290127   1.000000
   16       -4.123521   1.000000
   17       -3.701724   1.000000
   18       -3.613089   1.000000
   19       -1.293851   0.000000
   20       -1.001822   0.000000
   21       -0.780774   0.000000
   22       -0.743850   0.000000
   23       -0.499051   0.000000
   24       -0.191226   0.000000
   25        0.775917   0.000000
   26        0.834455   0.000000
 
  0.2820513E+00  0.0000000E+00  0.0000000E+00  0.8333333E-02
    1      -16.255207   1.000000
    2      -16.213158   1.000000
    3      -15.690204   1.000000
    4      -15.637043   1.000000
    5       -7.590210   1.000000
    6       -7.426213   1.000000
    7       -6.837140   1.000000
    8       -6.700483   1.000000
    9       -6.643718   1.000000
   10       -6.515433   1.000000
   11       -5.114039   1.000000
   12       -5.102034   1.000000
   13       -4.558778   1.000000
   14       -4.246795   1.000000
   15       -4.232421   1.000000
   16       -4.178073   1.000000
   17       -3.741391   1.000000
   18       -3.658155   1.000000
   19       -1.286874   0.000000
   20       -1.000013   0.000000
   21       -0.818959   0.000000
   22       -0.782929   0.000000
   23       -0.433456   0.000000
   24       -0.115532   0.000000
   25        0.814481   0.000000
   26        0.875139   0.000000
 
  0.2948718E+00  0.0000000E+00  0.0000000E+00  0.8333333E-02
    1      -16.187146   1.000000
    2      -16.145249   1.000000
    3      -15.650805   1.000000
    4      -15.598564   1.000000
    5       -7.607043   1.000000
    6       -7.475021   1.000000
    7       -6.893659   1.000000
    8       -6.733424   1.000000
    9       -6.730656   1.000000
   10       -6.608237   1.000000
   11       -5.170980   1.000000
   12       -5.158858   1.000000
   13       -4.609579   1.000000
   14       -4.231715   1.000000
   15       -4.191249   1.000000
   16       -4.174834   1.000000
   17       -3.775376   1.000000
   18       -3.695348   1.000000
   19       -1.272866   0.000000
   20       -0.994081   0.000000
   21       -0.853462   0.000000
   22       -0.818115   0.000000
   23       -0.364475   0.000000
   24       -0.037653   0.000000
   25        0.850241   0.000000
   26        0.913016   0.000000
 
  0.3076923E+00  0.0000000E+00  0.0000000E+00  0.8333333E-02
    1      -16.119116   1.000000
    2      -16.077387   1.000000
    3      -15.611609   1.000000
    4      -15.560289   1.000000
    5       -7.648589   1.000000
    6       -7.544113   1.000000
    7       -6.940577   1.000000
    8       -6.808920   1.000000
    9       -6.780055   1.000000
   10       -6.662013   1.000000
   11       -5.225397   1.000000
   12       -5.213112   1.000000
   13       -4.657521   1.000000
   14       -4.281848   1.000000
   15       -4.137340   1.000000
   16       -4.119799   1.000000
   17       -3.802436   1.000000
   18       -3.723575   1.000000
   19       -1.252846   0.000000
   20       -0.985141   0.000000
   21       -0.884123   0.000000
   22       -0.848813   0.000000
   23       -0.293357   0.000000
   24        0.041120   0.000000
   25        0.883211   0.000000
   26        0.948111   0.000000
 
  0.3205128E+00  0.0000000E+00  0.0000000E+00  0.8333333E-02
    1      -16.051588   1.000000
    2      -16.010040   1.000000
    3      -15.572872   1.000000
    4      -15.522479   1.000000
    5       -7.710814   1.000000
    6       -7.626654   1.000000
    7       -6.999023   1.000000
    8       -6.864471   1.000000
    9       -6.852324   1.000000
   10       -6.667173   1.000000
   11       -5.277064   1.000000
   12       -5.264649   1.000000
   13       -4.702257   1.000000
   14       -4.329216   1.000000
   15       -4.085491   1.000000
   16       -4.066568   1.000000
   17       -3.821616   1.000000
   18       -3.742088   1.000000
   19       -1.227848   0.000000
   20       -0.974828   0.000000
   21       -0.910693   0.000000
   22       -0.873932   0.000000
   23       -0.221213   0.000000
   24        0.119704   0.000000
   25        0.913439   0.000000
   26        0.980408   0.000000
 
  0.3333333E+00  0.0000000E+00  0.0000000E+00  0.8333333E-02
    1      -15.985072   1.000000
    2      -15.943707   1.000000
    3      -15.534904   1.000000
    4      -15.485429   1.000000
    5       -7.787224   1.000000
    6       -7.716660   1.000000
    7       -7.075657   1.000000
    8       -6.958171   1.000000
    9       -6.862599   1.000000
   10       -6.654599   1.000000
   11       -5.325831   1.000000
   12       -5.313288   1.000000
   13       -4.743588   1.000000
   14       -4.373369   1.000000
   15       -4.036185   1.000000
   16       -4.015726   1.000000
   17       -3.832325   1.000000
   18       -3.750494   1.000000
   19       -1.198903   0.000000
   20       -0.966174   0.000000
   21       -0.933178   0.000000
   22       -0.891031   0.000000
   23       -0.149199   0.000000
   24        0.196982   0.000000
   25        0.940948   0.000000
   26        1.009927   0.000000
 
  0.3461538E+00  0.0000000E+00  0.0000000E+00  0.8333333E-02
    1      -15.920095   1.000000
    2      -15.878915   1.000000
    3      -15.497998   1.000000
    4      -15.449427   1.000000
    5       -7.871583   1.000000
    6       -7.809696   1.000000
    7       -7.159013   1.000000
    8       -7.051284   1.000000
    9       -6.856284   1.000000
   10       -6.637501   1.000000
   11       -5.371530   1.000000
   12       -5.358862   1.000000
   13       -4.781399   1.000000
   14       -4.414090   1.000000
   15       -3.989781   1.000000
   16       -3.967654   1.000000
   17       -3.834386   1.000000
   18       -3.748883   1.000000
   19       -1.167060   0.000000
   20       -0.964116   0.000000
   21       -0.951422   0.000000
   22       -0.895779   0.000000
   23       -0.078364   0.000000
   24        0.271986   0.000000
   25        0.965843   0.000000
   26        1.036764   0.000000
 
  0.3589744E+00  0.0000000E+00  0.0000000E+00  0.8333333E-02
    1      -15.857220   1.000000
    2      -15.816225   1.000000
    3      -15.462457   1.000000
    4      -15.414781   1.000000
    5       -7.959108   1.000000
    6       -7.902629   1.000000
    7       -7.242252   1.000000
    8       -7.140991   1.000000
    9       -6.843658   1.000000
   10       -6.620459   1.000000
   11       -5.414020   1.000000
   12       -5.401268   1.000000
   13       -4.815667   1.000000
   14       -4.451280   1.000000
   15       -3.946625   1.000000
   16       -3.922672   1.000000
   17       -3.828023   1.000000
   18       -3.737820   1.000000
   19       -1.133461   0.000000
   20       -0.969943   0.000000
   21       -0.965237   0.000000
   22       -0.887587   0.000000
   23       -0.009698   0.000000
   24        0.343797   0.000000
   25        0.988217   0.000000
   26        1.060961   0.000000
 
  0.3717949E+00  0.0000000E+00  0.0000000E+00  0.8333333E-02
    1      -15.797013   1.000000
    2      -15.756210   1.000000
    3      -15.428619   1.000000
    4      -15.381794   1.000000
    5       -8.046321   1.000000
    6       -7.993167   1.000000
    7       -7.322487   1.000000
    8       -7.225941   1.000000
    9       -6.829483   1.000000
   10       -6.605470   1.000000
   11       -5.453198   1.000000
   12       -5.440346   1.000000
   13       -4.846434   1.000000
   14       -4.484894   1.000000
   15       -3.906918   1.000000
   16       -3.881029   1.000000
   17       -3.813970   1.000000
   18       -3.718377   1.000000
   19       -1.099586   0.000000
   20       -0.978892   0.000000
   21       -0.974051   0.000000
   22       -0.872017   0.000000
   23        0.055841   0.000000
   24        0.411615   0.000000
   25        1.008145   0.000000
   26        1.082630   0.000000
 
  0.3846154E+00  0.0000000E+00  0.0000000E+00  0.8333333E-02
    1      -15.740085   1.000000
    2      -15.699474   1.000000
    3      -15.396782   1.000000
    4      -15.350774   1.000000
    5       -8.130716   1.000000
    6       -8.079557   1.000000
    7       -7.398176   1.000000
    8       -7.305245   1.000000
    9       -6.816067   1.000000
   10       -6.593356   1.000000
   11       -5.488940   1.000000
   12       -5.475993   1.000000
   13       -4.873767   1.000000
   14       -4.514964   1.000000
   15       -3.870736   1.000000
   16       -3.842888   1.000000
   17       -3.793504   1.000000
   18       -3.691991   1.000000
   19       -1.068148   0.000000
   20       -0.987454   0.000000
   21       -0.976354   0.000000
   22       -0.853329   0.000000
   23        0.117360   0.000000
   24        0.474649   0.000000
   25        1.025754   0.000000
   26        1.101868   0.000000
 
  0.3974359E+00  0.0000000E+00  0.0000000E+00  0.8333333E-02
    1      -15.687032   1.000000
    2      -15.646600   1.000000
    3      -15.367246   1.000000
    4      -15.322024   1.000000
    5       -8.210403   1.000000
    6       -8.160378   1.000000
    7       -7.468230   1.000000
    8       -7.378138   1.000000
    9       -6.804468   1.000000
   10       -6.584263   1.000000
   11       -5.521134   1.000000
   12       -5.508128   1.000000
   13       -4.897756   1.000000
   14       -4.541528   1.000000
   15       -3.837990   1.000000
   16       -3.808389   1.000000
   17       -3.768291   1.000000
   18       -3.660409   1.000000
   19       -1.043935   0.000000
   20       -0.994370   0.000000
   21       -0.968540   0.000000
   22       -0.833501   0.000000
   23        0.174133   0.000000
   24        0.532282   0.000000
   25        1.041180   0.000000
   26        1.118767   0.000000
 
  0.4102564E+00  0.0000000E+00  0.0000000E+00  0.8333333E-02
    1      -15.638457   1.000000
    2      -15.598201   1.000000
    3      -15.340336   1.000000
    4      -15.295828   1.000000
    5       -8.283894   1.000000
    6       -8.234465   1.000000
    7       -7.531880   1.000000
    8       -7.443992   1.000000