    6    6    1    1
  0.7965567E+02  0.3322260E-09  0.3322260E-09  0.5000000E-08  0.5000000E-15
  1.000000000000000E-004
  CAR 
 (MoSe2)2                                
     36    160     26
 
  0.5000000E+00  0.0000000E+00  0.0000000E+00  0.6250000E-02
    1      -14.958216   1.000000
    2      -14.923066   1.000000
    3      -14.661965   1.000000
    4      -14.622045   1.000000
    5       -8.100038   1.000000
    6       -8.053568   1.000000
    7       -7.191127   1.000000
    8       -7.109490   1.000000
    9       -6.687772   1.000000
   10       -6.525565   1.000000
   11       -5.516089   1.000000
   12       -5.506128   1.000000
   13       -4.629964   1.000000
   14       -4.303130   1.000000
   15       -3.664219   1.000000
   16       -3.492810   1.000000
   17       -3.182250   1.000000
   18       -3.154806   1.000000
   19       -1.362268   0.000000
   20       -1.347354   0.000000
   21       -1.001082   0.000000
   22       -0.944433   0.000000
   23        0.482009   0.000000
   24        0.826062   0.000000
   25        1.269907   0.000000
   26        1.354268   0.000000
 
  0.4978903E+00  0.4219409E-02  0.0000000E+00  0.6250000E-02
    1      -14.958140   1.000000
    2      -14.922988   1.000000
    3      -14.661915   1.000000
    4      -14.621997   1.000000
    5       -8.099785   1.000000
    6       -8.053317   1.000000
    7       -7.191227   1.000000
    8       -7.109629   1.000000
    9       -6.687699   1.000000
   10       -6.525489   1.000000
   11       -5.516272   1.000000
   12       -5.506200   1.000000
   13       -4.629850   1.000000
   14       -4.303094   1.000000
   15       -3.665192   1.000000
   16       -3.494057   1.000000
   17       -3.182317   1.000000
   18       -3.154673   1.000000
   19       -1.362236   0.000000
   20       -1.347246   0.000000
   21       -1.000960   0.000000
   22       -0.944275   0.000000
   23        0.482239   0.000000
   24        0.826221   0.000000
   25        1.268745   0.000000
   26        1.353284   0.000000
 
  0.4957806E+00  0.8438818E-02  0.0000000E+00  0.6250000E-02
    1      -14.957910   1.000000
    2      -14.922759   1.000000
    3      -14.661744   1.000000
    4      -14.621830   1.000000
    5       -8.099021   1.000000
    6       -8.052555   1.000000
    7       -7.191518   1.000000
    8       -7.110034   1.000000
    9       -6.687480   1.000000
   10       -6.525238   1.000000
   11       -5.516758   1.000000
   12       -5.506381   1.000000
   13       -4.629486   1.000000
   14       -4.302957   1.000000
   15       -3.668095   1.000000
   16       -3.497764   1.000000
   17       -3.182506   1.000000
   18       -3.154274   1.000000
   19       -1.362118   0.000000
   20       -1.346880   0.000000
   21       -1.000584   0.000000
   22       -0.943779   0.000000
   23        0.482959   0.000000
   24        0.826735   0.000000
   25        1.265283   0.000000
   26        1.350365   0.000000
 
  0.4936709E+00  0.1265823E-01  0.0000000E+00  0.6250000E-02
    1      -14.957529   1.000000
    2      -14.922378   1.000000
    3      -14.661464   1.000000
    4      -14.621552   1.000000
    5       -8.097747   1.000000
    6       -8.051288   1.000000
    7       -7.192005   1.000000
    8       -7.110709   1.000000
    9       -6.687107   1.000000
   10       -6.524831   1.000000
   11       -5.517585   1.000000
   12       -5.506693   1.000000
   13       -4.628887   1.000000
   14       -4.302736   1.000000
   15       -3.672926   1.000000
   16       -3.503917   1.000000
   17       -3.182822   1.000000
   18       -3.153640   1.000000
   19       -1.361929   0.000000
   20       -1.346284   0.000000
   21       -0.999960   0.000000
   22       -0.942956   0.000000
   23        0.484149   0.000000
   24        0.827579   0.000000
   25        1.259531   0.000000
   26        1.345520   0.000000
 
  0.4915612E+00  0.1687764E-01  0.0000000E+00  0.6250000E-02
    1      -14.956997   1.000000
    2      -14.921847   1.000000
    3      -14.661071   1.000000
    4      -14.621171   1.000000
    5       -8.095968   1.000000
    6       -8.049513   1.000000
    7       -7.192688   1.000000
    8       -7.111663   1.000000
    9       -6.686587   1.000000
   10       -6.524248   1.000000
   11       -5.518728   1.000000
   12       -5.507126   1.000000
   13       -4.628059   1.000000
   14       -4.302435   1.000000
   15       -3.679668   1.000000
   16       -3.512432   1.000000
   17       -3.183266   1.000000
   18       -3.152822   1.000000
   19       -1.361700   0.000000
   20       -1.345474   0.000000
   21       -0.999084   0.000000
   22       -0.941786   0.000000
   23        0.485809   0.000000
   24        0.828733   0.000000
   25        1.251542   0.000000
   26        1.338790   0.000000
 
  0.4894515E+00  0.2109704E-01  0.0000000E+00  0.6250000E-02
    1      -14.956312   1.000000
    2      -14.921165   1.000000
    3      -14.660568   1.000000
    4      -14.620674   1.000000
    5       -8.093680   1.000000
    6       -8.047235   1.000000
    7       -7.193568   1.000000
    8       -7.112880   1.000000
    9       -6.685929   1.000000
   10       -6.523517   1.000000
   11       -5.520187   1.000000
   12       -5.507674   1.000000
   13       -4.627014   1.000000
   14       -4.302059   1.000000
   15       -3.688315   1.000000
   16       -3.523247   1.000000
   17       -3.183839   1.000000
   18       -3.151876   1.000000
   19       -1.361410   0.000000
   20       -1.344492   0.000000
   21       -0.997930   0.000000
   22       -0.940259   0.000000
   23        0.487929   0.000000
   24        0.830207   0.000000
   25        1.241375   0.000000
   26        1.330245   0.000000
 
  0.4873418E+00  0.2531645E-01  0.0000000E+00  0.6250000E-02
    1      -14.955477   1.000000
    2      -14.920332   1.000000
    3      -14.659952   1.000000
    4      -14.620067   1.000000
    5       -8.090883   1.000000
    6       -8.044450   1.000000
    7       -7.194648   1.000000
    8       -7.114370   1.000000
    9       -6.685111   1.000000
   10       -6.522612   1.000000
   11       -5.521943   1.000000
   12       -5.508329   1.000000
   13       -4.625762   1.000000
   14       -4.301615   1.000000
   15       -3.698821   1.000000
   16       -3.536252   1.000000
   17       -3.184534   1.000000
   18       -3.150859   1.000000
   19       -1.361079   0.000000
   20       -1.343335   0.000000
   21       -0.996487   0.000000
   22       -0.938347   0.000000
   23        0.490505   0.000000
   24        0.831967   0.000000
   25        1.229101   0.000000
   26        1.319950   0.000000
 
  0.4852321E+00  0.2953586E-01  0.0000000E+00  0.6250000E-02
    1      -14.954490   1.000000
    2      -14.919347   1.000000
    3      -14.659224   1.000000
    4      -14.619350   1.000000
    5       -8.087578   1.000000
    6       -8.041160   1.000000
    7       -7.195926   1.000000
    8       -7.116131   1.000000
    9       -6.684145   1.000000
   10       -6.521556   1.000000
   11       -5.523956   1.000000
   12       -5.509069   1.000000
   13       -4.624309   1.000000
   14       -4.301112   1.000000
   15       -3.711166   1.000000
   16       -3.551360   1.000000
   17       -3.185349   1.000000
   18       -3.149818   1.000000
   19       -1.360713   0.000000
   20       -1.341995   0.000000
   21       -0.994736   0.000000
   22       -0.936018   0.000000
   23        0.493538   0.000000
   24        0.833994   0.000000
   25        1.214831   0.000000
   26        1.308008   0.000000
 
  0.4831224E+00  0.3375527E-01  0.0000000E+00  0.6250000E-02
    1      -14.953355   1.000000
    2      -14.918217   1.000000
    3      -14.658390   1.000000
    4      -14.618526   1.000000
    5       -8.083770   1.000000
    6       -8.037369   1.000000
    7       -7.197407   1.000000
    8       -7.118164   1.000000
    9       -6.683042   1.000000
   10       -6.520343   1.000000
   11       -5.526243   1.000000
   12       -5.509897   1.000000
   13       -4.622684   1.000000
   14       -4.300564   1.000000
   15       -3.725328   1.000000
   16       -3.568474   1.000000
   17       -3.186295   1.000000
   18       -3.148843   1.000000
   19       -1.360388   0.000000
   20       -1.340649   0.000000
   21       -0.992668   0.000000
   22       -0.933268   0.000000
   23        0.496997   0.000000
   24        0.836246   0.000000
   25        1.198644   0.000000
   26        1.294515   0.000000
 
  0.4810127E+00  0.3797468E-01  0.0000000E+00  0.6250000E-02
    1      -14.952073   1.000000
    2      -14.916940   1.000000
    3      -14.657446   1.000000
    4      -14.617594   1.000000
    5       -8.079456   1.000000
    6       -8.033076   1.000000
    7       -7.199093   1.000000
    8       -7.120470   1.000000
    9       -6.681787   1.000000
   10       -6.518974   1.000000
   11       -5.528765   1.000000
   12       -5.510796   1.000000
   13       -4.620902   1.000000
   14       -4.299984   1.000000
   15       -3.741257   1.000000
   16       -3.587488   1.000000
   17       -3.187356   1.000000
   18       -3.147961   1.000000
   19       -1.360084   0.000000
   20       -1.339238   0.000000
   21       -0.990252   0.000000
   22       -0.930050   0.000000
   23        0.500876   0.000000
   24        0.838684   0.000000
   25        1.180662   0.000000
   26        1.279599   0.000000
 
  0.4789029E+00  0.4219409E-01  0.0000000E+00  0.6250000E-02
    1      -14.950643   1.000000
    2      -14.915515   1.000000
    3      -14.656392   1.000000
    4      -14.616554   1.000000
    5       -8.074637   1.000000
    6       -8.028280   1.000000
    7       -7.200984   1.000000
    8       -7.123050   1.000000
    9       -6.680379   1.000000
   10       -6.517438   1.000000
   11       -5.531478   1.000000
   12       -5.511748   1.000000
   13       -4.618981   1.000000
   14       -4.299387   1.000000
   15       -3.758912   1.000000
   16       -3.608306   1.000000
   17       -3.188532   1.000000
   18       -3.147214   1.000000
   19       -1.359841   0.000000
   20       -1.337829   0.000000
   21       -0.987466   0.000000
   22       -0.926332   0.000000
   23        0.505159   0.000000
   24        0.841250   0.000000
   25        1.161013   0.000000
   26        1.263400   0.000000
 
  0.4767932E+00  0.4641350E-01  0.0000000E+00  0.6250000E-02
    1      -14.949065   1.000000
    2      -14.913945   1.000000
    3      -14.655234   1.000000
    4      -14.615411   1.000000
    5       -8.069317   1.000000
    6       -8.022987   1.000000
    7       -7.203086   1.000000
    8       -7.125903   1.000000
    9       -6.678838   1.000000
   10       -6.515764   1.000000
   11       -5.534394   1.000000
   12       -5.512742   1.000000
   13       -4.616948   1.000000
   14       -4.298791   1.000000
   15       -3.778262   1.000000
   16       -3.630844   1.000000
   17       -3.189815   1.000000
   18       -3.146640   1.000000
   19       -1.359658   0.000000
   20       -1.336482   0.000000
   21       -0.984280   0.000000
   22       -0.922080   0.000000
   23        0.509816   0.000000
   24        0.843873   0.000000
   25        1.139821   0.000000
   26        1.246084   0.000000
 
  0.4746835E+00  0.5063291E-01  0.0000000E+00  0.6250000E-02
    1      -14.947348   1.000000
    2      -14.912234   1.000000
    3      -14.653972   1.000000
    4      -14.614163   1.000000
    5       -8.063499   1.000000
    6       -8.017198   1.000000
    7       -7.205400   1.000000
    8       -7.129033   1.000000
    9       -6.677150   1.000000
   10       -6.513936   1.000000
   11       -5.537505   1.000000
   12       -5.513790   1.000000
   13       -4.614828   1.000000
   14       -4.298218   1.000000
   15       -3.799254   1.000000
   16       -3.655008   1.000000
   17       -3.191206   1.000000
   18       -3.146260   1.000000
   19       -1.359639   0.000000
   20       -1.335266   0.000000
   21       -0.980690   0.000000
   22       -0.917273   0.000000
   23        0.514822   0.000000
   24        0.846456   0.000000
   25        1.117205   0.000000
   26        1.227814   0.000000
 
  0.4725738E+00  0.5485232E-01  0.0000000E+00  0.6250000E-02
    1      -14.945489   1.000000
    2      -14.910381   1.000000
    3      -14.652604   1.000000
    4      -14.612815   1.000000
    5       -8.057180   1.000000
    6       -8.010911   1.000000
    7       -7.207929   1.000000
    8       -7.132436   1.000000
    9       -6.675326   1.000000
   10       -6.511951   1.000000
   11       -5.540726   1.000000
   12       -5.514826   1.000000
   13       -4.612642   1.000000
   14       -4.297682   1.000000
   15       -3.821850   1.000000
   16       -3.680715   1.000000
   17       -3.192692   1.000000
   18       -3.146077   1.000000
   19       -1.359791   0.000000
   20       -1.334216   0.000000
   21       -0.976655   0.000000
   22       -0.911864   0.000000
   23        0.520151   0.000000
   24        0.848891   0.000000
   25        1.093344   0.000000
   26        1.208833   0.000000
 
  0.4704641E+00  0.5907172E-01  0.0000000E+00  0.6250000E-02
    1      -14.943493   1.000000
    2      -14.908387   1.000000
    3      -14.651125   1.000000
    4      -14.611367   1.000000
    5       -8.050366   1.000000
    6       -8.004130   1.000000
    7       -7.210667   1.000000
    8       -7.136116   1.000000
    9       -6.673366   1.000000
   10       -6.509803   1.000000
   11       -5.544061   1.000000
   12       -5.515864   1.000000
   13       -4.610417   1.000000
   14       -4.297222   1.000000
   15       -3.845992   1.000000
   16       -3.707879   1.000000
   17       -3.194264   1.000000
   18       -3.146102   1.000000
   19       -1.360122   0.000000
   20       -1.333375   0.000000
   21       -0.972172   0.000000
   22       -0.905814   0.000000
   23        0.525772   0.000000
   24        0.851008   0.000000
   25        1.068364   0.000000
   26        1.189371   0.000000
 
  0.4683544E+00  0.6329113E-01  0.0000000E+00  0.6250000E-02
    1      -14.941352   1.000000
    2      -14.906255   1.000000
    3      -14.649552   1.000000
    4      -14.609811   1.000000
    5       -8.043054   1.000000
    6       -7.996857   1.000000
    7       -7.213631   1.000000
    8       -7.140061   1.000000
    9       -6.671263   1.000000
   10       -6.507529   1.000000
   11       -5.547479   1.000000
   12       -5.516876   1.000000
   13       -4.608186   1.000000
   14       -4.296848   1.000000
   15       -3.871626   1.000000
   16       -3.736436   1.000000
   17       -3.195895   1.000000
   18       -3.146342   1.000000
   19       -1.360616   0.000000
   20       -1.332809   0.000000
   21       -0.967148   0.000000
   22       -0.899112   0.000000
   23        0.531609   0.000000
   24        0.852630   0.000000
   25        1.042425   0.000000
   26        1.169738   0.000000
 
  0.4662447E+00  0.6751054E-01  0.0000000E+00  0.6250000E-02
    1      -14.939077   1.000000
    2      -14.903986   1.000000
    3      -14.647881   1.000000
    4      -14.608159   1.000000
    5       -8.035258   1.000000
    6       -7.989097   1.000000
    7       -7.216820   1.000000
    8       -7.144285   1.000000
    9       -6.669054   1.000000
   10       -6.505112   1.000000
   11       -5.550946   1.000000
   12       -5.517849   1.000000
   13       -4.605976   1.000000
   14       -4.296596   1.000000
   15       -3.898724   1.000000
   16       -3.766298   1.000000
   17       -3.197615   1.000000
   18       -3.146786   1.000000
   19       -1.361411   0.000000
   20       -1.332565   0.000000
   21       -0.961604   0.000000
   22       -0.891720   0.000000
   23        0.537609   0.000000
   24        0.853475   0.000000
   25        1.015703   0.000000
   26        1.150274   0.000000
 
  0.4641350E+00  0.7172995E-01  0.0000000E+00  0.6250000E-02
    1      -14.936671   1.000000
    2      -14.901592   1.000000
    3      -14.646115   1.000000
    4      -14.606417   1.000000
    5       -8.026967   1.000000
    6       -7.980852   1.000000
    7       -7.220234   1.000000
    8       -7.148786   1.000000
    9       -6.666691   1.000000
   10       -6.502569   1.000000
   11       -5.554437   1.000000
   12       -5.518772   1.000000
   13       -4.603819   1.000000
   14       -4.296513   1.000000
   15       -3.927188   1.000000
   16       -3.797386   1.000000
   17       -3.199369   1.000000
   18       -3.147440   1.000000
   19       -1.362510   0.000000
   20       -1.332696   0.000000
   21       -0.955555   0.000000
   22       -0.883633   0.000000
   23        0.543689   0.000000
   24        0.853204   0.000000
   25        0.988381   0.000000
   26        1.131402   0.000000
 
  0.4620253E+00  0.7594936E-01  0.0000000E+00  0.6250000E-02
    1      -14.934135   1.000000
    2      -14.899065   1.000000
    3      -14.644252   1.000000
    4      -14.604585   1.000000
    5       -8.018191   1.000000
    6       -7.972122   1.000000
    7       -7.223875   1.000000
    8       -7.153558   1.000000
    9       -6.664206   1.000000
   10       -6.499896   1.000000
   11       -5.557911   1.000000
   12       -5.519627   1.000000
   13       -4.601742   1.000000
   14       -4.296631   1.000000
   15       -3.956983   1.000000
   16       -3.829613   1.000000
   17       -3.201156   1.000000
   18       -3.148262   1.000000
   19       -1.363916   0.000000
   20       -1.333195   0.000000
   21       -0.948965   0.000000
   22       -0.874811   0.000000
   23        0.549748   0.000000
   24        0.851417   0.000000
   25        0.960673   0.000000
   26        1.113616   0.000000
 
  0.4599156E+00  0.8016877E-01  0.0000000E+00  0.6250000E-02
    1      -14.931472   1.000000
    2      -14.896412   1.000000
    3      -14.642296   1.000000
    4      -14.602655   1.000000
    5       -8.008929   1.000000
    6       -7.962909   1.000000
    7       -7.227745   1.000000
    8       -7.158599   1.000000
    9       -6.661591   1.000000
   10       -6.497072   1.000000
   11       -5.561341   1.000000
   12       -5.520358   1.000000
   13       -4.599786   1.000000
   14       -4.296995   1.000000
   15       -3.988040   1.000000
   16       -3.862884   1.000000
   17       -3.202962   1.000000
   18       -3.149247   1.000000
   19       -1.365649   0.000000
   20       -1.334164   0.000000
   21       -0.941785   0.000000
   22       -0.865266   0.000000
   23        0.555632   0.000000
   24        0.847657   0.000000
   25        0.932814   0.000000
   26        1.097492   0.000000
 
  0.4578059E+00  0.8438818E-01  0.0000000E+00  0.6250000E-02
    1      -14.928684   1.000000
    2      -14.893633   1.000000
    3      -14.640247   1.000000
    4      -14.600631   1.000000
    5       -7.999184   1.000000
    6       -7.953213   1.000000
    7       -7.231844   1.000000
    8       -7.163905   1.000000
    9       -6.658853   1.000000
   10       -6.494108   1.000000
   11       -5.564706   1.000000
   12       -5.520972   1.000000
   13       -4.597980   1.000000
   14       -4.297670   1.000000
   15       -4.020294   1.000000
   16       -3.897090   1.000000
   17       -3.204771   1.000000
   18       -3.150365   1.000000
   19       -1.367733   0.000000
   20       -1.335588   0.000000
   21       -0.934010   0.000000
   22       -0.854971   0.000000
   23        0.561147   0.000000
   24        0.841443   0.000000
   25        0.905105   0.000000
   26        1.083589   0.000000
 
  0.4556962E+00  0.8860759E-01  0.0000000E+00  0.6250000E-02
    1      -14.925773   1.000000
    2      -14.890730   1.000000
    3      -14.638107   1.000000
    4      -14.598525   1.000000
    5       -7.988963   1.000000
    6       -7.943042   1.000000
    7       -7.236171   1.000000
    8       -7.169481   1.000000
    9       -6.655999   1.000000
   10       -6.491005   1.000000
   11       -5.567985   1.000000
   12       -5.521467   1.000000
   13       -4.596357   1.000000
   14       -4.298740   1.000000
   15       -4.053682   1.000000
   16       -3.932118   1.000000
   17       -3.206564   1.000000
   18       -3.151594   1.000000
   19       -1.370195   0.000000
   20       -1.337484   0.000000
   21       -0.925663   0.000000
   22       -0.843930   0.000000
   23        0.566017   0.000000
   24        0.832346   0.000000
   25        0.877898   0.000000
   26        1.072374   0.000000
 
  0.4535865E+00  0.9282699E-01  0.0000000E+00  0.6250000E-02
    1      -14.922743   1.000000
    2      -14.887712   1.000000
    3      -14.635886   1.000000
    4      -14.596333   1.000000
    5       -7.978265   1.000000
    6       -7.932404   1.000000
    7       -7.240741   1.000000
    8       -7.175318   1.000000
    9       -6.653014   1.000000
   10       -6.487792   1.000000
   11       -5.571160   1.000000
   12       -5.521812   1.000000
   13       -4.594990   1.000000
   14       -4.300313   1.000000
   15       -4.088117   1.000000
   16       -3.967834   1.000000
   17       -3.208324   1.000000
   18       -3.152936   1.000000
   19       -1.373057   0.000000
   20       -1.339908   0.000000
   21       -0.916729   0.000000
   22       -0.832184   0.000000
   23        0.569823   0.000000
   24        0.820154   0.000000
   25        0.851646   0.000000
   26        1.064152   0.000000
 
  0.4514768E+00  0.9704640E-01  0.0000000E+00  0.6250000E-02
    1      -14.919599   1.000000
    2      -14.884580   1.000000
    3      -14.633583   1.000000
    4      -14.594067   1.000000
    5       -7.967099   1.000000
    6       -7.921293   1.000000
    7       -7.245544   1.000000
    8       -7.181423   1.000000
    9       -6.649927   1.000000
   10       -6.484463   1.000000
   11       -5.574175   1.000000
   12       -5.522009   1.000000
   13       -4.593905   1.000000
   14       -4.302540   1.000000
   15       -4.123534   1.000000
   16       -4.004048   1.000000
   17       -3.210048   1.000000
   18       -3.154352   1.000000
   19       -1.376350   0.000000
   20       -1.342864   0.000000
   21       -0.907227   0.000000
   22       -0.819726   0.000000
   23        0.572026   0.000000
   24        0.804878   0.000000
   25        0.827006   0.000000
   26        1.058953   0.000000
 
  0.4493671E+00  0.1012658E+00  0.0000000E+00  0.6250000E-02
    1      -14.916340   1.000000
    2      -14.881330   1.000000
    3      -14.631200   1.000000
    4      -14.591717   1.000000
    5       -7.955460   1.000000
    6       -7.909715   1.000000
    7       -7.250591   1.000000
    8       -7.187778   1.000000
    9       -6.646714   1.000000
   10       -6.481010   1.000000
   11       -5.577010   1.000000
   12       -5.522002   1.000000
   13       -4.593173   1.000000
   14       -4.305636   1.000000
   15       -4.159828   1.000000
   16       -4.040490   1.000000
   17       -3.211698   1.000000
   18       -3.155798   1.000000
   19       -1.380051   0.000000
   20       -1.346302   0.000000
   21       -0.897136   0.000000
   22       -0.806544   0.000000
   23        0.571906   0.000000
   24        0.786804   0.000000
   25        0.804768   0.000000
   26        1.056611   0.000000
 
  0.4472574E+00  0.1054852E+00  0.0000000E+00  0.6250000E-02
    1      -14.912976   1.000000
    2      -14.877977   1.000000
    3      -14.628736   1.000000
    4      -14.589287   1.000000
    5       -7.943359   1.000000
    6       -7.897677   1.000000
    7       -7.255858   1.000000
    8       -7.194382   1.000000
    9       -6.643392   1.000000
   10       -6.477453   1.000000
   11       -5.579648   1.000000
   12       -5.521813   1.000000
   13       -4.592849   1.000000
   14       -4.309935   1.000000
   15       -4.196904   1.000000
   16       -4.076809   1.000000
   17       -3.213262   1.000000
   18       -3.157283   1.000000
   19       -1.384158   0.000000
   20       -1.350277   0.000000
   21       -0.886465   0.000000
   22       -0.792698   0.000000
   23        0.568598   0.000000
   24        0.766297   0.000000
   25        0.785873   0.000000
   26        1.056784   0.000000
 
  0.4451477E+00  0.1097046E+00  0.0000000E+00  0.6250000E-02
    1      -14.909503   1.000000
    2      -14.874517   1.000000
    3      -14.626195   1.000000
    4      -14.586781   1.000000
    5       -7.930796   1.000000
    6       -7.885180   1.000000
    7       -7.261353   1.000000
    8       -7.201225   1.000000
    9       -6.639959   1.000000
   10       -6.473779   1.000000
   11       -5.582056   1.000000
   12       -5.521391   1.000000
   13       -4.593037   1.000000
   14       -4.315956   1.000000
   15       -4.234631   1.000000
   16       -4.112437   1.000000
   17       -3.214728   1.000000
   18       -3.158766   1.000000
   19       -1.388684   0.000000
   20       -1.354764   0.000000
   21       -0.875229   0.000000
   22       -0.778196   0.000000
   23        0.561239   0.000000
   24        0.743847   0.000000
   25        0.771237   0.000000
   26        1.059070   0.000000
 
  0.4430380E+00  0.1139240E+00  0.0000000E+00  0.6250000E-02
    1      -14.905929   1.000000
    2      -14.870957   1.000000
    3      -14.623582   1.000000
    4      -14.584203   1.000000
    5       -7.917775   1.000000
    6       -7.872230   1.000000
    7       -7.267077   1.000000
    8       -7.208306   1.000000
    9       -6.636417   1.000000
   10       -6.470011   1.000000
   11       -5.584217   1.000000
   12       -5.520739   1.000000
   13       -4.593863   1.000000
   14       -4.324515   1.000000
   15       -4.272846   1.000000
   16       -4.146536   1.000000
   17       -3.216072   1.000000
   18       -3.160215   1.000000
   19       -1.393632   0.000000
   20       -1.359744   0.000000
   21       -0.863443   0.000000
   22       -0.763060   0.000000
   23        0.549314   0.000000
   24        0.719873   0.000000
   25        0.761428   0.000000
   26        1.063089   0.000000
 
  0.4409283E+00  0.1181434E+00  0.0000000E+00  0.6250000E-02
    1      -14.902257   1.000000
    2      -14.867299   1.000000
    3      -14.620893   1.000000
    4      -14.581554   1.000000
    5       -7.904302   1.000000
    6       -7.858828   1.000000
    7       -7.273018   1.000000
    8       -7.215613   1.000000
    9       -6.632771   1.000000
   10       -6.466132   1.000000
   11       -5.586103   1.000000
   12       -5.519839   1.000000
   13       -4.595506   1.000000
   14       -4.336799   1.000000
   15       -4.311332   1.000000
   16       -4.177865   1.000000
   17       -3.217276   1.000000
   18       -3.161612   1.000000
   19       -1.398991   0.000000
   20       -1.365227   0.000000
   21       -0.851121   0.000000
   22       -0.747329   0.000000
   23        0.532919   0.000000
   24        0.694752   0.000000
   25        0.756416   0.000000
   26        1.068522   0.000000
 
  0.4388186E+00  0.1223629E+00  0.0000000E+00  0.6250000E-02
    1      -14.898490   1.000000
    2      -14.863551   1.000000
    3      -14.618144   1.000000
    4      -14.578842   1.000000
    5       -7.890380   1.000000
    6       -7.844983   1.000000
    7       -7.279187   1.000000
    8       -7.223142   1.000000
    9       -6.629023   1.000000
   10       -6.462172   1.000000
   11       -5.587705   1.000000
   12       -5.518668   1.000000
   13       -4.598258   1.000000
   14       -4.354263   1.000000
   15       -4.349774   1.000000
   16       -4.204966   1.000000
   17       -3.218330   1.000000
   18       -3.162948   1.000000
   19       -1.404764   0.000000
   20       -1.371204   0.000000
   21       -0.838281   0.000000
   22       -0.731042   0.000000
   23        0.512674   0.000000
   24        0.668796   0.000000
   25        0.755591   0.000000
   26        1.075088   0.000000
 
  0.4367088E+00  0.1265823E+00  0.0000000E+00  0.6250000E-02
    1      -14.894636   1.000000
    2      -14.859712   1.000000
    3      -14.615335   1.000000
    4      -14.576074   1.000000
    5       -7.876017   1.000000
    6       -7.830698   1.000000
    7       -7.285572   1.000000
    8       -7.230889   1.000000
    9       -6.625189   1.000000
   10       -6.458116   1.000000
   11       -5.589010   1.000000
   12       -5.517242   1.000000
   13       -4.602555   1.000000
   14       -4.387717   1.000000
   15       -4.377929   1.000000
   16       -4.226742   1.000000
   17       -3.219241   1.000000
   18       -3.164206   1.000000
   19       -1.410973   0.000000
   20       -1.377673   0.000000
   21       -0.824987   0.000000
   22       -0.714243   0.000000
   23        0.489470   0.000000
   24        0.642258   0.000000
   25        0.758113   0.000000
   26        1.082571   0.000000
 
  0.4345991E+00  0.1308017E+00  0.0000000E+00  0.6250000E-02
    1      -14.890701   1.000000
    2      -14.855791   1.000000
    3      -14.612464   1.000000
    4      -14.573252   1.000000
    5       -7.861219   1.000000
    6       -7.815977   1.000000
    7       -7.292166   1.000000
    8       -7.238844   1.000000
    9       -6.621274   1.000000
   10       -6.453983   1.000000
   11       -5.589977   1.000000
   12       -5.515558   1.000000
   13       -4.609117   1.000000
   14       -4.424388   1.000000
   15       -4.407732   1.000000
   16       -4.243271   1.000000
   17       -3.219980   1.000000
   18       -3.165345   1.000000
   19       -1.417573   0.000000
   20       -1.384590   0.000000
   21       -0.811217   0.000000
   22       -0.696941   0.000000
   23        0.464176   0.000000
   24        0.615319   0.000000
   25        0.763179   0.000000
   26        1.090798   0.000000
 
  0.4324894E+00  0.1350211E+00  0.0000000E+00  0.6250000E-02
    1      -14.886682   1.000000
    2      -14.851787   1.000000
    3      -14.609527   1.000000
    4      -14.570363   1.000000
    5       -7.845984   1.000000
    6       -7.800824   1.000000
    7       -7.298947   1.000000
    8       -7.246986   1.000000