    6    6    1    1
  0.7965567E+02  0.3322260E-09  0.3322260E-09  0.5000000E-08  0.5000000E-15
  1.000000000000000E-004
  CAR 
 (MoSe2)2                                
     36     60     22
 
  0.0000000E+00  0.0000000E+00  0.0000000E+00  0.1666667E-01
    1      -17.156596   1.000000
    2      -17.113577   1.000000
    3      -16.226200   1.000000
    4      -16.161374   1.000000
    5       -8.442492   1.000000
    6       -8.181152   1.000000
    7       -5.118366   1.000000
    8       -5.093414   1.000000
    9       -5.092464   1.000000
   10       -4.980699   1.000000
   11       -4.978609   1.000000
   12       -4.426727   1.000000
   13       -4.192772   1.000000
   14       -4.175600   1.000000
   15       -3.987925   1.000000
   16       -3.978426   1.000000
   17       -3.261176   1.000000
   18       -2.886610   1.000000
   19       -0.150078   0.000000
   20       -0.113993   0.000000
   21       -0.085593   0.000000
   22       -0.065927   0.000000
 
  0.2631579E-01  0.0000000E+00  0.0000000E+00  0.1666667E-01
    1      -17.147623   1.000000
    2      -17.104604   1.000000
    3      -16.220813   1.000000
    4      -16.156083   1.000000
    5       -8.430773   1.000000
    6       -8.169308   1.000000
    7       -5.142874   1.000000
    8       -5.086913   1.000000
    9       -5.083819   1.000000
   10       -5.007157   1.000000
   11       -5.004495   1.000000
   12       -4.520547   1.000000
   13       -4.178051   1.000000
   14       -4.096835   1.000000
   15       -4.004838   1.000000
   16       -3.993639   1.000000
   17       -3.261068   1.000000
   18       -2.890606   1.000000
   19       -0.186898   0.000000
   20       -0.145622   0.000000
   21       -0.087654   0.000000
   22       -0.054590   0.000000
 
  0.5263158E-01  0.0000000E+00  0.0000000E+00  0.1666667E-01
    1      -17.120801   1.000000
    2      -17.077785   1.000000
    3      -16.204709   1.000000
    4      -16.140317   1.000000
    5       -8.395961   1.000000
    6       -8.134008   1.000000
    7       -5.216232   1.000000
    8       -5.092120   1.000000
    9       -5.088807   1.000000
   10       -5.054277   1.000000
   11       -5.049461   1.000000
   12       -4.689705   1.000000
   13       -4.142884   1.000000
   14       -4.053071   1.000000
   15       -4.052666   1.000000
   16       -3.959773   1.000000
   17       -3.261694   1.000000
   18       -2.903401   1.000000
   19       -0.288127   0.000000
   20       -0.239210   0.000000
   21       -0.063662   0.000000
   22       -0.016838   0.000000
 
  0.7894737E-01  0.0000000E+00  0.0000000E+00  0.1666667E-01
    1      -17.076494   1.000000
    2      -17.033483   1.000000
    3      -16.178121   1.000000
    4      -16.114287   1.000000
    5       -8.338888   1.000000
    6       -8.076194   1.000000
    7       -5.325038   1.000000
    8       -5.214360   1.000000
    9       -5.209459   1.000000
   10       -5.012650   1.000000
   11       -5.007551   1.000000
   12       -4.877021   1.000000
   13       -4.143707   1.000000
   14       -4.128482   1.000000
   15       -4.089923   1.000000
   16       -3.850130   1.000000
   17       -3.265647   1.000000
   18       -2.927985   1.000000
   19       -0.428604   0.000000
   20       -0.367496   0.000000
   21       -0.262140   0.000000
   22       -0.136558   0.000000
 
  0.1052632E+00  0.0000000E+00  0.0000000E+00  0.1666667E-01
    1      -17.015270   1.000000
    2      -16.972276   1.000000
    3      -16.141428   1.000000
    4      -16.078366   1.000000
    5       -8.261040   1.000000
    6       -7.997499   1.000000
    7       -5.458095   1.000000
    8       -5.378835   1.000000
    9       -5.372927   1.000000
   10       -5.073375   1.000000
   11       -4.950912   1.000000
   12       -4.945156   1.000000
   13       -4.240760   1.000000
   14       -4.230103   1.000000
   15       -4.067315   1.000000
   16       -3.770195   1.000000
   17       -3.277236   1.000000
   18       -2.968872   1.000000
   19       -0.586253   0.000000
   20       -0.503203   0.000000
   21       -0.469813   0.000000
   22       -0.303259   0.000000
 
  0.1315789E+00  0.0000000E+00  0.0000000E+00  0.1666667E-01
    1      -16.937959   1.000000
    2      -16.895002   1.000000
    3      -16.095179   1.000000
    4      -16.033101   1.000000
    5       -8.164746   1.000000
    6       -7.900467   1.000000
    7       -5.612077   1.000000
    8       -5.571199   1.000000
    9       -5.567977   1.000000
   10       -5.275891   1.000000
   11       -4.873473   1.000000
   12       -4.867140   1.000000
   13       -4.359619   1.000000
   14       -4.349269   1.000000
   15       -4.066853   1.000000
   16       -3.732181   1.000000
   17       -3.302057   1.000000
   18       -3.030966   1.000000
   19       -0.760386   0.000000
   20       -0.635115   0.000000
   21       -0.630611   0.000000
   22       -0.446100   0.000000
 
  0.1578947E+00  0.0000000E+00  0.0000000E+00  0.1666667E-01
    1      -16.845663   1.000000
    2      -16.802766   1.000000
    3      -16.040096   1.000000
    4      -15.979202   1.000000
    5       -8.053394   1.000000
    6       -7.788987   1.000000
    7       -5.809270   1.000000
    8       -5.785564   1.000000
    9       -5.756997   1.000000
   10       -5.484312   1.000000
   11       -4.782426   1.000000
   12       -4.775195   1.000000
   13       -4.490172   1.000000
   14       -4.479721   1.000000
   15       -4.099966   1.000000
   16       -3.740782   1.000000
   17       -3.345374   1.000000
   18       -3.117214   1.000000
   19       -0.942590   0.000000
   20       -0.749947   0.000000
   21       -0.725627   0.000000
   22       -0.525546   0.000000
 
  0.1842105E+00  0.0000000E+00  0.0000000E+00  0.1666667E-01
    1      -16.739797   1.000000
    2      -16.696980   1.000000
    3      -15.977110   1.000000
    4      -15.917591   1.000000
    5       -7.931960   1.000000
    6       -7.669037   1.000000
    7       -6.042322   1.000000
    8       -6.016158   1.000000
    9       -5.933368   1.000000
   10       -5.698557   1.000000
   11       -4.680634   1.000000
   12       -4.671716   1.000000
   13       -4.626066   1.000000
   14       -4.615963   1.000000
   15       -4.167119   1.000000
   16       -3.793350   1.000000
   17       -3.409908   1.000000
   18       -3.225804   1.000000
   19       -1.098152   0.000000
   20       -0.855999   0.000000
   21       -0.750953   0.000000
   22       -0.506432   0.000000
 
  0.2105263E+00  0.0000000E+00  0.0000000E+00  0.1666667E-01
    1      -16.622083   1.000000
    2      -16.579392   1.000000
    3      -15.907367   1.000000
    4      -15.849375   1.000000
    5       -7.807976   1.000000
    6       -7.550437   1.000000
    7       -6.283720   1.000000
    8       -6.248336   1.000000
    9       -6.117422   1.000000
   10       -5.918070   1.000000
   11       -4.765033   1.000000
   12       -4.753712   1.000000
   13       -4.568476   1.000000
   14       -4.559081   1.000000
   15       -4.261336   1.000000
   16       -3.880111   1.000000
   17       -3.493692   1.000000
   18       -3.349367   1.000000
   19       -1.210303   0.000000
   20       -0.935489   0.000000
   21       -0.719108   0.000000
   22       -0.568590   0.000000
 
  0.2368421E+00  0.0000000E+00  0.0000000E+00  0.1666667E-01
    1      -16.494621   1.000000
    2      -16.452118   1.000000
    3      -15.832250   1.000000
    4      -15.775925   1.000000
    5       -7.693856   1.000000
    6       -7.451038   1.000000
    7       -6.518889   1.000000
    8       -6.464644   1.000000
    9       -6.309757   1.000000
   10       -6.141285   1.000000
   11       -4.900276   1.000000
   12       -4.888749   1.000000
   13       -4.452349   1.000000
   14       -4.440989   1.000000
   15       -4.371082   1.000000
   16       -3.987489   1.000000
   17       -3.589180   1.000000
   18       -3.476128   1.000000
   19       -1.275027   0.000000
   20       -0.983363   0.000000
   21       -0.669965   0.000000
   22       -0.639179   0.000000
 
  0.2631579E+00  0.0000000E+00  0.0000000E+00  0.1666667E-01
    1      -16.359982   1.000000
    2      -16.317705   1.000000
    3      -15.753392   1.000000
    4      -15.698850   1.000000
    5       -7.612141   1.000000
    6       -7.405034   1.000000
    7       -6.727133   1.000000
    8       -6.633809   1.000000
    9       -6.507128   1.000000
   10       -6.364489   1.000000
   11       -5.029927   1.000000
   12       -5.018079   1.000000
   13       -4.485414   1.000000
   14       -4.333697   1.000000
   15       -4.320790   1.000000
   16       -4.102211   1.000000
   17       -3.684201   1.000000
   18       -3.592122   1.000000
   19       -1.295912   0.000000
   20       -1.002120   0.000000
   21       -0.764100   0.000000
   22       -0.726728   0.000000
 
  0.2894737E+00  0.0000000E+00  0.0000000E+00  0.1666667E-01
    1      -16.221167   1.000000
    2      -16.179158   1.000000
    3      -15.672685   1.000000
    4      -15.620008   1.000000
    5       -7.601556   1.000000
    6       -7.456356   1.000000
    7       -6.876650   1.000000
    8       -6.722781   1.000000
    9       -6.700489   1.000000
   10       -6.575552   1.000000
   11       -5.151285   1.000000
   12       -5.139174   1.000000
   13       -4.593867   1.000000
   14       -4.217695   1.000000
   15       -4.215651   1.000000
   16       -4.200710   1.000000
   17       -3.764757   1.000000
   18       -3.683526   1.000000
   19       -1.280696   0.000000
   20       -0.997795   0.000000
   21       -0.841807   0.000000
   22       -0.806330   0.000000
 
  0.3157895E+00  0.0000000E+00  0.0000000E+00  0.1666667E-01
    1      -16.081712   1.000000
    2      -16.040052   1.000000
    3      -15.592337   1.000000
    4      -15.541558   1.000000
    5       -7.690997   1.000000
    6       -7.600254   1.000000
    7       -6.979345   1.000000
    8       -6.845256   1.000000
    9       -6.835343   1.000000
   10       -6.673040   1.000000
   11       -5.262342   1.000000
   12       -5.249961   1.000000
   13       -4.691255   1.000000
   14       -4.316706   1.000000
   15       -4.107747   1.000000
   16       -4.089326   1.000000
   17       -3.818532   1.000000
   18       -3.739306   1.000000
   19       -1.238339   0.000000
   20       -0.978965   0.000000
   21       -0.903580   0.000000
   22       -0.867877   0.000000
 
  0.3421053E+00  0.0000000E+00  0.0000000E+00  0.1666667E-01
    1      -15.945745   1.000000
    2      -15.904460   1.000000
    3      -15.514755   1.000000
    4      -15.465859   1.000000
    5       -7.849854   1.000000
    6       -7.785637   1.000000
    7       -7.136870   1.000000
    8       -7.026533   1.000000
    9       -6.863743   1.000000
   10       -6.647338   1.000000
   11       -5.361434   1.000000
   12       -5.348795   1.000000
   13       -4.774663   1.000000
   14       -4.405946   1.000000
   15       -4.007702   1.000000
   16       -3.986095   1.000000
   17       -3.837827   1.000000
   18       -3.753419   1.000000
   19       -1.177751   0.000000
   20       -0.963860   0.000000
   21       -0.948136   0.000000
   22       -0.897965   0.000000
 
  0.3684211E+00  0.0000000E+00  0.0000000E+00  0.1666667E-01
    1      -15.817887   1.000000
    2      -15.776987   1.000000
    3      -15.442547   1.000000
    4      -15.395453   1.000000
    5       -8.029208   1.000000
    6       -7.975298   1.000000
    7       -7.306358   1.000000
    8       -7.208697   1.000000
    9       -6.837568   1.000000
   10       -6.613375   1.000000
   11       -5.447220   1.000000
   12       -5.434381   1.000000
   13       -4.843244   1.000000
   14       -4.480495   1.000000
   15       -3.920766   1.000000
   16       -3.895420   1.000000
   17       -3.821703   1.000000
   18       -3.727341   1.000000
   19       -1.108299   0.000000
   20       -0.977057   0.000000
   21       -0.974179   0.000000
   22       -0.877613   0.000000
 
  0.3947368E+00  0.0000000E+00  0.0000000E+00  0.1666667E-01
    1      -15.703164   1.000000
    2      -15.662646   1.000000
    3      -15.378427   1.000000
    4      -15.333003   1.000000
    5       -8.199891   1.000000
    6       -8.149631   1.000000
    7       -7.458784   1.000000
    8       -7.368152   1.000000
    9       -6.811022   1.000000
   10       -6.590087   1.000000
   11       -5.518657   1.000000
   12       -5.505657   1.000000
   13       -4.897324   1.000000
   14       -4.540123   1.000000
   15       -3.848475   1.000000
   16       -3.819294   1.000000
   17       -3.777449   1.000000
   18       -3.670630   1.000000
   19       -1.047590   0.000000
   20       -0.993661   0.000000
   21       -0.973066   0.000000
   22       -0.838160   0.000000
 
  0.4210526E+00  0.0000000E+00  0.0000000E+00  0.1666667E-01
    1      -15.606772   1.000000
    2      -15.566595   1.000000
    3      -15.325069   1.000000
    4      -15.281068   1.000000
    5       -8.345962   1.000000
    6       -8.296717   1.000000
    7       -7.584930   1.000000
    8       -7.498513   1.000000
    9       -6.793085   1.000000
   10       -6.578645   1.000000
   11       -5.574982   1.000000
   12       -5.561835   1.000000
   13       -4.937817   1.000000
   14       -4.585299   1.000000
   15       -3.790840   1.000000
   16       -3.759108   1.000000
   17       -3.719050   1.000000
   18       -3.598651   1.000000
   19       -1.025339   0.000000
   20       -1.003037   0.000000
   21       -0.925583   0.000000
   22       -0.797755   0.000000
 
  0.4473684E+00  0.0000000E+00  0.0000000E+00  0.1666667E-01
    1      -15.533658   1.000000
    2      -15.493725   1.000000
    3      -15.284913   1.000000
    4      -15.242012   1.000000
    5       -8.457248   1.000000
    6       -8.408027   1.000000
    7       -7.679030   1.000000
    8       -7.595112   1.000000
    9       -6.783436   1.000000
   10       -6.575243   1.000000
   11       -5.615646   1.000000
   12       -5.602378   1.000000
   13       -4.965783   1.000000
   14       -4.616812   1.000000
   15       -3.749163   1.000000
   16       -3.715926   1.000000
   17       -3.661578   1.000000
   18       -3.529184   1.000000
   19       -1.019906   0.000000
   20       -1.006515   0.000000
   21       -0.865729   0.000000
   22       -0.763169   0.000000
 
  0.4736842E+00  0.0000000E+00  0.0000000E+00  0.1666667E-01
    1      -15.487931   1.000000
    2      -15.448152   1.000000
    3      -15.259928   1.000000
    4      -15.217735   1.000000
    5       -8.526821   1.000000
    6       -8.477392   1.000000
    7       -7.737106   1.000000
    8       -7.654486   1.000000
    9       -6.779280   1.000000
   10       -6.575366   1.000000
   11       -5.640181   1.000000
   12       -5.626857   1.000000
   13       -4.982141   1.000000
   14       -4.635377   1.000000
   15       -3.724295   1.000000
   16       -3.690086   1.000000
   17       -3.619542   1.000000
   18       -3.479186   1.000000
   19       -1.016683   0.000000
   20       -1.006981   0.000000
   21       -0.821673   0.000000
   22       -0.739626   0.000000
 
  0.5000000E+00  0.0000000E+00  0.0000000E+00  0.1666667E-01
    1      -15.472355   1.000000
    2      -15.432645   1.000000
    3      -15.251445   1.000000
    4      -15.209489   1.000000
    5       -8.550480   1.000000
    6       -8.500959   1.000000
    7       -7.756734   1.000000
    8       -7.674509   1.000000
    9       -6.778194   1.000000
   10       -6.575786   1.000000
   11       -5.648370   1.000000
   12       -5.635031   1.000000
   13       -4.987519   1.000000
   14       -4.641486   1.000000
   15       -3.716057   1.000000
   16       -3.681502   1.000000
   17       -3.604138   1.000000
   18       -3.461022   1.000000
   19       -1.015417   0.000000
   20       -1.006834   0.000000
   21       -0.805537   0.000000
   22       -0.731260   0.000000
 
  0.5000000E+00  0.0000000E+00  0.0000000E+00  0.1666667E-01
    1      -15.472355   1.000000
    2      -15.432645   1.000000
    3      -15.251445   1.000000
    4      -15.209489   1.000000
    5       -8.550480   1.000000
    6       -8.500959   1.000000
    7       -7.756734   1.000000
    8       -7.674509   1.000000
    9       -6.778194   1.000000
   10       -6.575786   1.000000
   11       -5.648370   1.000000
   12       -5.635031   1.000000
   13       -4.987519   1.000000
   14       -4.641486   1.000000
   15       -3.716057   1.000000
   16       -3.681502   1.000000
   17       -3.604138   1.000000
   18       -3.461022   1.000000
   19       -1.015417   0.000000
   20       -1.006834   0.000000
   21       -0.805537   0.000000
   22       -0.731260   0.000000
 
  0.4912281E+00  0.1754384E-01  0.0000000E+00  0.1666667E-01
    1      -15.471030   1.000000
    2      -15.431322   1.000000
    3      -15.250413   1.000000
    4      -15.208478   1.000000
    5       -8.546421   1.000000
    6       -8.496907   1.000000
    7       -7.756867   1.000000
    8       -7.675041   1.000000
    9       -6.777008   1.000000
   10       -6.574551   1.000000
   11       -5.654247   1.000000
   12       -5.639469   1.000000
   13       -4.985962   1.000000
   14       -4.641077   1.000000
   15       -3.794868   1.000000
   16       -3.738408   1.000000
   17       -3.541538   1.000000
   18       -3.421026   1.000000
   19       -1.017044   0.000000
   20       -1.006554   0.000000
   21       -0.801045   0.000000
   22       -0.727137   0.000000
 
  0.4824561E+00  0.3508768E-01  0.0000000E+00  0.1666667E-01
    1      -15.467076   1.000000
    2      -15.427384   1.000000
    3      -15.247324   1.000000
    4      -15.205429   1.000000
    5       -8.534258   1.000000
    6       -8.484768   1.000000
    7       -7.757315   1.000000
    8       -7.676659   1.000000
    9       -6.773478   1.000000
   10       -6.570908   1.000000
   11       -5.671284   1.000000
   12       -5.652428   1.000000
   13       -4.981715   1.000000
   14       -4.640068   1.000000
   15       -3.926641   1.000000
   16       -3.858337   1.000000
   17       -3.457624   1.000000
   18       -3.351009   1.000000
   19       -1.022002   0.000000
   20       -1.006480   0.000000
   21       -0.787570   0.000000
   22       -0.714228   0.000000
 
  0.4736842E+00  0.5263153E-01  0.0000000E+00  0.1666667E-01
    1      -15.460558   1.000000
    2      -15.420895   1.000000
    3      -15.242235   1.000000
    4      -15.200405   1.000000
    5       -8.514043   1.000000
    6       -8.464598   1.000000
    7       -7.758240   1.000000
    8       -7.679510   1.000000
    9       -6.767679   1.000000
   10       -6.565002   1.000000
   11       -5.697855   1.000000
   12       -5.672884   1.000000
   13       -4.975936   1.000000
   14       -4.639161   1.000000
   15       -4.078007   1.000000
   16       -4.005209   1.000000
   17       -3.383497   1.000000
   18       -3.284567   1.000000
   19       -1.030680   0.000000
   20       -1.008700   0.000000
   21       -0.765211   0.000000
   22       -0.691233   0.000000
 
  0.4649122E+00  0.7017537E-01  0.0000000E+00  0.1666667E-01
    1      -15.451591   1.000000
    2      -15.411964   1.000000
    3      -15.235226   1.000000
    4      -15.193490   1.000000
    5       -8.485870   1.000000
    6       -8.436489   1.000000
    7       -7.759890   1.000000
    8       -7.683813   1.000000
    9       -6.759834   1.000000
   10       -6.557052   1.000000
   11       -5.731767   1.000000
   12       -5.699333   1.000000
   13       -4.970226   1.000000
   14       -4.639602   1.000000
   15       -4.244576   1.000000
   16       -4.169296   1.000000
   17       -3.320179   1.000000
   18       -3.227414   1.000000
   19       -1.043497   0.000000
   20       -1.015504   0.000000
   21       -0.734245   0.000000
   22       -0.657011   0.000000
 
  0.4561403E+00  0.8771921E-01  0.0000000E+00  0.1666667E-01
    1      -15.440342   1.000000
    2      -15.400759   1.000000
    3      -15.226445   1.000000
    4      -15.184830   1.000000
    5       -8.449871   1.000000
    6       -8.400567   1.000000
    7       -7.762621   1.000000
    8       -7.689864   1.000000
    9       -6.750167   1.000000
   10       -6.547373   1.000000
   11       -5.770488   1.000000
   12       -5.729943   1.000000
   13       -4.966437   1.000000
   14       -4.643866   1.000000
   15       -4.423404   1.000000
   16       -4.344780   1.000000
   17       -3.266116   1.000000
   18       -3.179346   1.000000
   19       -1.060864   0.000000
   20       -1.028464   0.000000
   21       -0.695288   0.000000
   22       -0.611378   0.000000
 
  0.4473683E+00  0.1052631E+00  0.0000000E+00  0.1666667E-01
    1      -15.427004   1.000000
    2      -15.387474   1.000000
    3      -15.216048   1.000000
    4      -15.174581   1.000000
    5       -8.406214   1.000000
    6       -8.357003   1.000000
    7       -7.766835   1.000000
    8       -7.697982   1.000000
    9       -6.738962   1.000000
   10       -6.536330   1.000000
   11       -5.811598   1.000000
   12       -5.762754   1.000000
   13       -4.967131   1.000000
   14       -4.662879   1.000000
   15       -4.610667   1.000000
   16       -4.518349   1.000000
   17       -3.219257   1.000000
   18       -3.138630   1.000000
   19       -1.082875   0.000000
   20       -1.048182   0.000000
   21       -0.649064   0.000000
   22       -0.555223   0.000000
 
  0.4385964E+00  0.1228069E+00  0.0000000E+00  0.1666667E-01
    1      -15.411817   1.000000
    2      -15.372358   1.000000
    3      -15.204219   1.000000
    4      -15.162912   1.000000
    5       -8.355106   1.000000
    6       -8.305997   1.000000
    7       -7.772913   1.000000
    8       -7.708434   1.000000
    9       -6.726537   1.000000
   10       -6.524432   1.000000
   11       -5.852670   1.000000
   12       -5.795704   1.000000
   13       -4.980225   1.000000
   14       -4.796793   1.000000
   15       -4.770071   1.000000
   16       -4.614261   1.000000
   17       -3.177549   1.000000
   18       -3.103250   1.000000
   19       -1.109440   0.000000
   20       -1.074390   0.000000
   21       -0.596405   0.000000
   22       -0.490110   0.000000
 
  0.4298244E+00  0.1403507E+00  0.0000000E+00  0.1666667E-01
    1      -15.395086   1.000000
    2      -15.355700   1.000000
    3      -15.191202   1.000000
    4      -15.150086   1.000000
    5       -8.296820   1.000000
    6       -8.247812   1.000000
    7       -7.781237   1.000000
    8       -7.721482   1.000000
    9       -6.713339   1.000000
   10       -6.512287   1.000000
   11       -5.891658   1.000000
   12       -5.827111   1.000000
   13       -5.063177   1.000000
   14       -4.958291   1.000000
   15       -4.922339   1.000000
   16       -4.637264   1.000000
   17       -3.139250   1.000000
   18       -3.071291   1.000000
   19       -1.140412   0.000000
   20       -1.106516   0.000000
   21       -0.538423   0.000000
   22       -0.417968   0.000000
 
  0.4210525E+00  0.1578946E+00  0.0000000E+00  0.1666667E-01
    1      -15.377154   1.000000
    2      -15.337846   1.000000
    3      -15.177279   1.000000
    4      -15.136349   1.000000
    5       -8.231680   1.000000
    6       -8.182766   1.000000
    7       -7.792109   1.000000
    8       -7.737225   1.000000
    9       -6.699855   1.000000
   10       -6.500724   1.000000
   11       -5.926799   1.000000
   12       -5.855348   1.000000
   13       -5.246916   1.000000
   14       -5.158813   1.000000
   15       -4.954061   1.000000
   16       -4.653291   1.000000
   17       -3.102888   1.000000
   18       -3.041072   1.000000
   19       -1.175298   0.000000
   20       -1.143656   0.000000
   21       -0.476162   0.000000
   22       -0.340681   0.000000
 
  0.4122805E+00  0.1754384E+00  0.0000000E+00  0.1666667E-01
    1      -15.358408   1.000000
    2      -15.319180   1.000000
    3      -15.162730   1.000000
    4      -15.122006   1.000000
    5       -8.160104   1.000000
    6       -8.111244   1.000000
    7       -7.805604   1.000000
    8       -7.755606   1.000000
    9       -6.686669   1.000000
   10       -6.490883   1.000000
   11       -5.956669   1.000000
   12       -5.879274   1.000000
   13       -5.448541   1.000000
   14       -5.360004   1.000000
   15       -4.972152   1.000000
   16       -4.670775   1.000000
   17       -3.067460   1.000000
   18       -3.011375   1.000000
   19       -1.213402   0.000000
   20       -1.184701   0.000000
   21       -0.410911   0.000000
   22       -0.260163   0.000000
 
  0.4035086E+00  0.1929823E+00  0.0000000E+00  0.1666667E-01
    1      -15.339272   1.000000
    2      -15.300141   1.000000
    3      -15.147910   1.000000
    4      -15.107394   1.000000
    5       -8.082679   1.000000
    6       -8.033767   1.000000
    7       -7.821548   1.000000
    8       -7.776295   1.000000
    9       -6.674639   1.000000
   10       -6.484581   1.000000
   11       -5.980358   1.000000
   12       -5.898105   1.000000
   13       -5.650400   1.000000
   14       -5.556598   1.000000
   15       -4.991141   1.000000
   16       -4.690894   1.000000
   17       -3.032475   1.000000
   18       -2.981588   1.000000
   19       -1.253741   0.000000
   20       -1.228432   0.000000
   21       -0.344298   0.000000
   22       -0.178552   0.000000
 
  0.3947366E+00  0.2105261E+00  0.0000000E+00  0.1666667E-01
    1      -15.320232   1.000000
    2      -15.281195   1.000000
    3      -15.133158   1.000000
    4      -15.092854   1.000000
    5       -8.000426   1.000000
    6       -7.951106   1.000000
    7       -7.839135   1.000000
    8       -7.798587   1.000000
    9       -6.665117   1.000000
   10       -6.484883   1.000000
   11       -5.997576   1.000000
   12       -5.911826   1.000000
   13       -5.846640   1.000000
   14       -5.742713   1.000000
   15       -5.012708   1.000000
   16       -4.713547   1.000000
   17       -2.997996   1.000000
   18       -2.951565   1.000000
   19       -1.294890   0.000000
   20       -1.273160   0.000000
   21       -0.279465   0.000000
   22       -0.134737   0.000000
 
  0.3859647E+00  0.2280699E+00  0.0000000E+00  0.1666667E-01
    1      -15.301808   1.000000
    2      -15.262865   1.000000
    3      -15.118856   1.000000
    4      -15.078771   1.000000
    5       -7.917637   1.000000
    6       -7.866209   1.000000
    7       -7.854274   1.000000
    8       -7.819607   1.000000
    9       -6.660686   1.000000
   10       -6.497641   1.000000
   11       -6.038080   1.000000
   12       -6.002178   1.000000
   13       -5.931061   1.000000
   14       -5.899700   1.000000
   15       -5.036704   1.000000
   16       -4.738101   1.000000
   17       -2.964721   1.000000
   18       -2.921909   1.000000
   19       -1.335102   0.000000
   20       -1.316932   0.000000
   21       -0.245604   0.000000
   22       -0.182119   0.000000
 
  0.3771927E+00  0.2456138E+00  0.0000000E+00  0.1666667E-01
    1      -15.284559   1.000000
    2      -15.245710   1.000000
    3      -15.105432   1.000000
    4      -15.065541   1.000000
    5       -7.889611   1.000000
    6       -7.849842   1.000000
    7       -7.812023   1.000000
    8       -7.768798   1.000000
    9       -6.666945   1.000000
   10       -6.533088   1.000000
   11       -6.201963   1.000000
   12       -6.052927   1.000000
   13       -6.009211   1.000000
   14       -5.918297   1.000000
   15       -5.062350   1.000000
   16       -4.763571   1.000000
   17       -2.934018   1.000000
   18       -2.893979   1.000000
   19       -1.372219   0.000000
   20       -1.357446   0.000000
   21       -0.295721   0.000000
   22       -0.130953   0.000000
 
  0.3684208E+00  0.2631576E+00  0.0000000E+00  0.1666667E-01
    1      -15.269079   1.000000
    2      -15.230305   1.000000
    3      -15.093276   1.000000
    4      -15.053572   1.000000
    5       -7.906697   1.000000
    6       -7.871700   1.000000
    7       -7.722809   1.000000
    8       -7.677250   1.000000
    9       -6.695854   1.000000
   10       -6.601777   1.000000
   11       -6.335508   1.000000
   12       -6.146224   1.000000
   13       -6.007313   1.000000
   14       -5.916973   1.000000
   15       -5.088362   1.000000
   16       -4.788672   1.000000
   17       -2.907879   1.000000
   18       -2.869719   1.000000
   19       -1.403599   0.000000
   20       -1.391828   0.000000
   21       -0.348039   0.000000
   22       -0.124746   0.000000
 
  0.3596488E+00  0.2807015E+00  0.0000000E+00  0.1666667E-01
    1      -15.255982   1.000000
    2      -15.217288   1.000000
    3      -15.082843   1.000000
    4      -15.043285   1.000000
    5       -7.925136   1.000000
    6       -7.892379   1.000000
    7       -7.632663   1.000000
    8       -7.586596   1.000000
    9       -6.761148   1.000000
   10       -6.699115   1.000000
   11       -6.417514   1.000000
   12       -6.196298   1.000000
   13       -6.000904   1.000000
   14       -5.911813   1.000000
   15       -5.113181   1.000000
   16       -4.811893   1.000000
   17       -2.888774   1.000000
   18       -2.851787   1.000000
   19       -1.426467   0.000000
   20       -1.417072   0.000000
   21       -0.390413   0.000000
   22       -0.164304   0.000000
 
  0.3508769E+00  0.2982453E+00  0.0000000E+00  0.1666667E-01
    1      -15.245900   1.000000
    2      -15.207271   1.000000
    3      -15.074524   1.000000
    4      -15.035074   1.000000
    5       -7.941266   1.000000
    6       -7.909842   1.000000
    7       -7.550770   1.000000
    8       -7.504483   1.000000
    9       -6.851229   1.000000
   10       -6.802453   1.000000
   11       -6.451827   1.000000
   12       -6.217712   1.000000
   13       -5.991725   1.000000
   14       -5.904517   1.000000
   15       -5.134864   1.000000
   16       -4.831518   1.000000