    6    6    1    1
  0.7965567E+02  0.3322260E-09  0.3322260E-09  0.5000000E-08  0.5000000E-15
  1.000000000000000E-004
  CAR 
 (MoSe2)2                                
     36    120     26
 
  0.0000000E+00  0.0000000E+00  0.0000000E+00  0.8333333E-02
    1      -16.982970   1.000000
    2      -16.940085   1.000000
    3      -16.042173   1.000000
    4      -15.976787   1.000000
    5       -8.319305   1.000000
    6       -8.059549   1.000000
    7       -4.982984   1.000000
    8       -4.982983   1.000000
    9       -4.978729   1.000000
   10       -4.978728   1.000000
   11       -4.965010   1.000000
   12       -4.273814   1.000000
   13       -4.003158   1.000000
   14       -4.003128   1.000000
   15       -3.995968   1.000000
   16       -3.995938   1.000000
   17       -3.203616   1.000000
   18       -2.819930   1.000000
   19       -0.002267   0.000000
   20        0.000804   0.000000
   21        0.033640   0.000000
   22        0.038446   0.000000
   23        0.226164   0.000000
   24        0.241068   0.000000
   25        0.269303   0.000000
   26        0.969824   0.000000
 
  0.8547000E-02  0.8547000E-02  0.0000000E+00  0.8333333E-02
    1      -16.980132   1.000000
    2      -16.937246   1.000000
    3      -16.040455   1.000000
    4      -15.975092   1.000000
    5       -8.315711   1.000000
    6       -8.055944   1.000000
    7       -4.991023   1.000000
    8       -4.986597   1.000000
    9       -4.979961   1.000000
   10       -4.975763   1.000000
   11       -4.972429   1.000000
   12       -4.303487   1.000000
   13       -4.008279   1.000000
   14       -4.001056   1.000000
   15       -3.999751   1.000000
   16       -3.970783   1.000000
   17       -3.203742   1.000000
   18       -2.821399   1.000000
   19       -0.013726   0.000000
   20        0.002293   0.000000
   21        0.023157   0.000000
   22        0.038339   0.000000
   23        0.208794   0.000000
   24        0.221433   0.000000
   25        0.255731   0.000000
   26        0.264464   0.000000
 
  0.1709400E-01  0.1709400E-01  0.0000000E+00  0.8333333E-02
    1      -16.971622   1.000000
    2      -16.928741   1.000000
    3      -16.035287   1.000000
    4      -15.970020   1.000000
    5       -8.304966   1.000000
    6       -8.045123   1.000000
    7       -5.014919   1.000000
    8       -5.010047   1.000000
    9       -4.994218   1.000000
   10       -4.970973   1.000000
   11       -4.966755   1.000000
   12       -4.372975   1.000000
   13       -4.023853   1.000000
   14       -4.016495   1.000000
   15       -3.989918   1.000000
   16       -3.914713   1.000000
   17       -3.204230   1.000000
   18       -2.825794   1.000000
   19       -0.047118   0.000000
   20       -0.007493   0.000000
   21        0.015893   0.000000
   22        0.052309   0.000000
   23        0.158611   0.000000
   24        0.207518   0.000000
   25        0.216847   0.000000
   26        0.250520   0.000000
 
  0.2564100E-01  0.2564100E-01  0.0000000E+00  0.8333333E-02
    1      -16.957473   1.000000
    2      -16.914595   1.000000
    3      -16.026697   1.000000
    4      -15.961606   1.000000
    5       -8.287191   1.000000
    6       -8.027184   1.000000
    7       -5.054095   1.000000
    8       -5.048416   1.000000
    9       -5.029068   1.000000
   10       -4.956154   1.000000
   11       -4.951871   1.000000
   12       -4.459777   1.000000
   13       -4.050053   1.000000
   14       -4.042468   1.000000
   15       -3.974802   1.000000
   16       -3.850180   1.000000
   17       -3.205420   1.000000
   18       -2.833451   1.000000
   19       -0.099839   0.000000
   20       -0.055925   0.000000
   21        0.037973   0.000000
   22        0.075138   0.000000
   23        0.081558   0.000000
   24        0.156706   0.000000
   25        0.184709   0.000000
   26        0.227418   0.000000
 
  0.3418800E-01  0.3418800E-01  0.0000000E+00  0.8333333E-02
    1      -16.937746   1.000000
    2      -16.894875   1.000000
    3      -16.014723   1.000000
    4      -15.949880   1.000000
    5       -8.262523   1.000000
    6       -8.002297   1.000000
    7       -5.107554   1.000000
    8       -5.101060   1.000000
    9       -5.075172   1.000000
   10       -4.935690   1.000000
   11       -4.931234   1.000000
   12       -4.554501   1.000000
   13       -4.087298   1.000000
   14       -4.079281   1.000000
   15       -3.956121   1.000000
   16       -3.786476   1.000000
   17       -3.207764   1.000000
   18       -2.844877   1.000000
   19       -0.168269   0.000000
   20       -0.118521   0.000000
   21       -0.015219   0.000000
   22        0.067062   0.000000
   23        0.080299   0.000000
   24        0.106504   0.000000
   25        0.154439   0.000000
   26        0.196521   0.000000
 
  0.4273500E-01  0.4273500E-01  0.0000000E+00  0.8333333E-02
    1      -16.912519   1.000000
    2      -16.869651   1.000000
    3      -15.999417   1.000000
    4      -15.934891   1.000000
    5       -8.231163   1.000000
    6       -7.970688   1.000000
    7       -5.174185   1.000000
    8       -5.166851   1.000000
    9       -5.130426   1.000000
   10       -4.909657   1.000000
   11       -4.905030   1.000000
   12       -4.653235   1.000000
   13       -4.136047   1.000000
   14       -4.127314   1.000000
   15       -3.935527   1.000000
   16       -3.727291   1.000000
   17       -3.211881   1.000000
   18       -2.860676   1.000000
   19       -0.248549   0.000000
   20       -0.191687   0.000000
   21       -0.123749   0.000000
   22       -0.005047   0.000000
   23        0.087436   0.000000
   24        0.131641   0.000000
   25        0.132446   0.000000
   26        0.169396   0.000000
 
  0.5128200E-01  0.5128200E-01  0.0000000E+00  0.8333333E-02
    1      -16.881902   1.000000
    2      -16.839045   1.000000
    3      -15.980849   1.000000
    4      -15.916708   1.000000
    5       -8.193411   1.000000
    6       -7.932690   1.000000
    7       -5.252807   1.000000
    8       -5.244554   1.000000
    9       -5.192773   1.000000
   10       -4.878457   1.000000
   11       -4.873638   1.000000
   12       -4.753985   1.000000
   13       -4.196808   1.000000
   14       -4.186907   1.000000
   15       -3.914587   1.000000
   16       -3.674465   1.000000
   17       -3.218571   1.000000
   18       -2.881668   1.000000
   19       -0.337777   0.000000
   20       -0.271022   0.000000
   21       -0.236097   0.000000
   22       -0.094697   0.000000
   23        0.052606   0.000000
   24        0.098600   0.000000
   25        0.162987   0.000000
   26        0.202247   0.000000
 
  0.5982900E-01  0.5982900E-01  0.0000000E+00  0.8333333E-02
    1      -16.846018   1.000000
    2      -16.803173   1.000000
    3      -15.959103   1.000000
    4      -15.895412   1.000000
    5       -8.149611   1.000000
    6       -7.888681   1.000000
    7       -5.341974   1.000000
    8       -5.332637   1.000000
    9       -5.260304   1.000000
   10       -4.855774   1.000000
   11       -4.842490   1.000000
   12       -4.837127   1.000000
   13       -4.269858   1.000000
   14       -4.258344   1.000000
   15       -3.894576   1.000000
   16       -3.629020   1.000000
   17       -3.228672   1.000000
   18       -2.908493   1.000000
   19       -0.435178   0.000000
   20       -0.353172   0.000000
   21       -0.343393   0.000000
   22       -0.183104   0.000000
   23       -0.002454   0.000000
   24        0.043835   0.000000
   25        0.213122   0.000000
   26        0.255659   0.000000
 
  0.6837600E-01  0.6837600E-01  0.0000000E+00  0.8333333E-02
    1      -16.805020   1.000000
    2      -16.762194   1.000000
    3      -15.934274   1.000000
    4      -15.871102   1.000000
    5       -8.100207   1.000000
    6       -7.839147   1.000000
    7       -5.440251   1.000000
    8       -5.429558   1.000000
    9       -5.331423   1.000000
   10       -4.956911   1.000000
   11       -4.802298   1.000000
   12       -4.796759   1.000000
   13       -4.355294   1.000000
   14       -4.341634   1.000000
   15       -3.876546   1.000000
   16       -3.591548   1.000000
   17       -3.243038   1.000000
   18       -2.941716   1.000000
   19       -0.540295   0.000000
   20       -0.438052   0.000000
   21       -0.435341   0.000000
   22       -0.265729   0.000000
   23       -0.065643   0.000000
   24       -0.018296   0.000000
   25        0.269801   0.000000
   26        0.316247   0.000000
 
  0.7692300E-01  0.7692300E-01  0.0000000E+00  0.8333333E-02
    1      -16.759080   1.000000
    2      -16.716284   1.000000
    3      -15.906479   1.000000
    4      -15.843887   1.000000
    5       -8.045714   1.000000
    6       -7.784689   1.000000
    7       -5.545933   1.000000
    8       -5.533603   1.000000
    9       -5.404792   1.000000
   10       -5.057393   1.000000
   11       -4.758550   1.000000
   12       -4.752533   1.000000
   13       -4.452881   1.000000
   14       -4.436430   1.000000
   15       -3.861342   1.000000
   16       -3.562417   1.000000
   17       -3.262452   1.000000
   18       -2.981686   1.000000
   19       -0.648652   0.000000
   20       -0.518026   0.000000
   21       -0.515425   0.000000
   22       -0.338995   0.000000
   23       -0.134666   0.000000
   24       -0.085508   0.000000
   25        0.330804   0.000000
   26        0.382113   0.000000
 
  0.8547000E-01  0.8547000E-01  0.0000000E+00  0.8333333E-02
    1      -16.708408   1.000000
    2      -16.665648   1.000000
    3      -15.875847   1.000000
    4      -15.813899   1.000000
    5       -7.986769   1.000000
    6       -7.726037   1.000000
    7       -5.657442   1.000000
    8       -5.643059   1.000000
    9       -5.479336   1.000000
   10       -5.156599   1.000000
   11       -4.712225   1.000000
   12       -4.705555   1.000000
   13       -4.561983   1.000000
   14       -4.542112   1.000000
   15       -3.849658   1.000000
   16       -3.541867   1.000000
   17       -3.287491   1.000000
   18       -3.028310   1.000000
   19       -0.754353   0.000000
   20       -0.591894   0.000000
   21       -0.584358   0.000000
   22       -0.400660   0.000000
   23       -0.207839   0.000000
   24       -0.155808   0.000000
   25        0.394771   0.000000
   26        0.452006   0.000000
 
  0.9401700E-01  0.9401700E-01  0.0000000E+00  0.8333333E-02
    1      -16.653235   1.000000
    2      -16.610519   1.000000
    3      -15.842536   1.000000
    4      -15.781293   1.000000
    5       -7.924147   1.000000
    6       -7.664104   1.000000
    7       -5.773031   1.000000
    8       -5.756063   1.000000
    9       -5.554254   1.000000
   10       -5.254304   1.000000
   11       -4.682914   1.000000
   12       -4.663134   1.000000
   13       -4.659823   1.000000
   14       -4.654730   1.000000
   15       -3.842072   1.000000
   16       -3.529976   1.000000
   17       -3.318365   1.000000
   18       -3.081009   1.000000
   19       -0.853424   0.000000
   20       -0.663618   0.000000
   21       -0.637692   0.000000
   22       -0.449893   0.000000
   23       -0.283256   0.000000
   24       -0.226784   0.000000
   25        0.460144   0.000000
   26        0.524450   0.000000
 
  0.1025640E+00  0.1025640E+00  0.0000000E+00  0.8333333E-02
    1      -16.593827   1.000000
    2      -16.551162   1.000000
    3      -15.806705   1.000000
    4      -15.746226   1.000000
    5       -7.858760   1.000000
    6       -7.600006   1.000000
    7       -5.890903   1.000000
    8       -5.870616   1.000000
    9       -5.628942   1.000000
   10       -5.350508   1.000000
   11       -4.810609   1.000000
   12       -4.781118   1.000000
   13       -4.616478   1.000000
   14       -4.608369   1.000000
   15       -3.838992   1.000000
   16       -3.526682   1.000000
   17       -3.354709   1.000000
   18       -3.138559   1.000000
   19       -0.943756   0.000000
   20       -0.730050   0.000000
   21       -0.678232   0.000000
   22       -0.487279   0.000000
   23       -0.358758   0.000000
   24       -0.295274   0.000000
   25        0.525864   0.000000
   26        0.598472   0.000000
 
  0.1111110E+00  0.1111110E+00  0.0000000E+00  0.8333333E-02
    1      -16.530469   1.000000
    2      -16.487871   1.000000
    3      -15.768546   1.000000
    4      -15.708881   1.000000
    5       -7.791746   1.000000
    6       -7.535206   1.000000
    7       -6.009188   1.000000
    8       -5.984588   1.000000
    9       -5.703091   1.000000
   10       -5.445596   1.000000
   11       -4.946388   1.000000
   12       -4.910434   1.000000
   13       -4.571125   1.000000
   14       -4.561864   1.000000
   15       -3.840759   1.000000
   16       -3.531757   1.000000
   17       -3.395452   1.000000
   18       -3.199163   1.000000
   19       -1.024528   0.000000
   20       -0.791397   0.000000
   21       -0.706312   0.000000
   22       -0.514865   0.000000
   23       -0.431886   0.000000
   24       -0.357036   0.000000
   25        0.590623   0.000000
   26        0.672647   0.000000
 
  0.1196580E+00  0.1196580E+00  0.0000000E+00  0.8333333E-02
    1      -16.463482   1.000000
    2      -16.420964   1.000000
    3      -15.728262   1.000000
    4      -15.669456   1.000000
    5       -7.724522   1.000000
    6       -7.471600   1.000000
    7       -6.125852   1.000000
    8       -6.095489   1.000000
    9       -5.776831   1.000000
   10       -5.540542   1.000000
   11       -5.087014   1.000000
   12       -5.042702   1.000000
   13       -4.530832   1.000000
   14       -4.520145   1.000000
   15       -3.847560   1.000000
   16       -3.544657   1.000000
   17       -3.438672   1.000000
   18       -3.260496   1.000000
   19       -1.095816   0.000000
   20       -0.848456   0.000000
   21       -0.722660   0.000000
   22       -0.536605   0.000000
   23       -0.499940   0.000000
   24       -0.406222   0.000000
   25        0.653236   0.000000
   26        0.745950   0.000000
 
  0.1282050E+00  0.1282050E+00  0.0000000E+00  0.8333333E-02
    1      -16.393219   1.000000
    2      -16.350806   1.000000
    3      -15.686070   1.000000
    4      -15.628172   1.000000
    5       -7.658888   1.000000
    6       -7.411736   1.000000
    7       -6.238577   1.000000
    8       -6.200315   1.000000
    9       -5.850738   1.000000
   10       -5.637021   1.000000
   11       -5.229550   1.000000
   12       -5.174197   1.000000
   13       -4.499151   1.000000
   14       -4.486662   1.000000
   15       -3.859376   1.000000
   16       -3.564213   1.000000
   17       -3.481500   1.000000
   18       -3.319982   1.000000
   19       -1.158204   0.000000
   20       -0.902099   0.000000
   21       -0.728402   0.000000
   22       -0.559979   0.000000
   23       -0.557869   0.000000
   24       -0.436076   0.000000
   25        0.712612   0.000000
   26        0.816998   0.000000
 
  0.1367520E+00  0.1367520E+00  0.0000000E+00  0.8333333E-02
    1      -16.320074   1.000000
    2      -16.277781   1.000000
    3      -15.642218   1.000000
    4      -15.585264   1.000000
    5       -7.597181   1.000000
    6       -7.359025   1.000000
    7       -6.344628   1.000000
    8       -6.295236   1.000000
    9       -5.926235   1.000000
   10       -5.737581   1.000000
   11       -5.370322   1.000000
   12       -5.300334   1.000000
   13       -4.480378   1.000000
   14       -4.465532   1.000000
   15       -3.876105   1.000000
   16       -3.588385   1.000000
   17       -3.520248   1.000000
   18       -3.375154   1.000000
   19       -1.212407   0.000000
   20       -0.952513   0.000000
   21       -0.725460   0.000000
   22       -0.608797   0.000000
   23       -0.580620   0.000000
   24       -0.444183   0.000000
   25        0.767804   0.000000
   26        0.884972   0.000000
 
  0.1452990E+00  0.1452990E+00  0.0000000E+00  0.8333333E-02
    1      -16.244479   1.000000
    2      -16.202321   1.000000
    3      -15.596967   1.000000
    4      -15.540988   1.000000
    5       -7.542445   1.000000
    6       -7.317963   1.000000
    7       -6.440697   1.000000
    8       -6.375600   1.000000
    9       -6.005812   1.000000
   10       -5.845234   1.000000
   11       -5.504744   1.000000
   12       -5.416177   1.000000
   13       -4.478789   1.000000
   14       -4.461186   1.000000
   15       -3.897750   1.000000
   16       -3.614736   1.000000
   17       -3.550899   1.000000
   18       -3.423916   1.000000
   19       -1.258841   0.000000
   20       -0.998769   0.000000
   21       -0.718234   0.000000
   22       -0.641572   0.000000
   23       -0.601428   0.000000
   24       -0.435206   0.000000
   25        0.818016   0.000000
   26        0.948906   0.000000
 
  0.1538460E+00  0.1538460E+00  0.0000000E+00  0.8333333E-02
    1      -16.166900   1.000000
    2      -16.124890   1.000000
    3      -15.550602   1.000000
    4      -15.495628   1.000000
    5       -7.498544   1.000000
    6       -7.293706   1.000000
    7       -6.522795   1.000000
    8       -6.436163   1.000000
    9       -6.093118   1.000000
   10       -5.962246   1.000000
   11       -5.627269   1.000000
   12       -5.517688   1.000000
   13       -4.497667   1.000000
   14       -4.477146   1.000000
   15       -3.924699   1.000000
   16       -3.642116   1.000000
   17       -3.570044   1.000000
   18       -3.463791   1.000000
   19       -1.297246   0.000000
   20       -1.038758   0.000000
   21       -0.716439   0.000000
   22       -0.649381   0.000000
   23       -0.617284   0.000000
   24       -0.414709   0.000000
   25        0.862605   0.000000
   26        1.008056   0.000000
 
  0.1623930E+00  0.1623930E+00  0.0000000E+00  0.8333333E-02
    1      -16.087817   1.000000
    2      -16.045974   1.000000
    3      -15.503404   1.000000
    4      -15.449462   1.000000
    5       -7.469757   1.000000
    6       -7.290463   1.000000
    7       -6.586510   1.000000
    8       -6.472624   1.000000
    9       -6.191687   1.000000
   10       -6.088603   1.000000
   11       -5.732358   1.000000
   12       -5.603039   1.000000
   13       -4.537945   1.000000
   14       -4.514763   1.000000
   15       -3.957631   1.000000
   16       -3.672612   1.000000
   17       -3.576023   1.000000
   18       -3.491098   1.000000
   19       -1.326496   0.000000
   20       -1.069550   0.000000
   21       -0.722508   0.000000
   22       -0.631473   0.000000
   23       -0.627938   0.000000
   24       -0.386271   0.000000
   25        0.901334   0.000000
   26        1.062054   0.000000
 
  0.1709400E+00  0.1709400E+00  0.0000000E+00  0.8333333E-02
    1      -16.007767   1.000000
    2      -15.966114   1.000000
    3      -15.455702   1.000000
    4      -15.402811   1.000000
    5       -7.459687   1.000000
    6       -7.309101   1.000000
    7       -6.628263   1.000000
    8       -6.484332   1.000000
    9       -6.302895   1.000000
   10       -6.221923   1.000000
   11       -5.817037   1.000000
   12       -5.672951   1.000000
   13       -4.598143   1.000000
   14       -4.572873   1.000000
   15       -3.997039   1.000000
   16       -3.710258   1.000000
   17       -3.569758   1.000000
   18       -3.502817   1.000000
   19       -1.345013   0.000000
   20       -1.088298   0.000000
   21       -0.726976   0.000000
   22       -0.634812   0.000000
   23       -0.600166   0.000000
   24       -0.352259   0.000000
   25        0.934117   0.000000
   26        1.110667   0.000000
 
  0.1794870E+00  0.1794870E+00  0.0000000E+00  0.8333333E-02
    1      -15.927324   1.000000
    2      -15.885882   1.000000
    3      -15.407825   1.000000
    4      -15.355995   1.000000
    5       -7.469263   1.000000
    6       -7.345984   1.000000
    7       -6.647361   1.000000
    8       -6.476199   1.000000
    9       -6.424324   1.000000
   10       -6.357766   1.000000
   11       -5.882015   1.000000
   12       -5.729313   1.000000
   13       -4.675283   1.000000
   14       -4.648508   1.000000
   15       -4.042860   1.000000
   16       -3.756787   1.000000
   17       -3.553890   1.000000
   18       -3.499809   1.000000
   19       -1.351132   0.000000
   20       -1.092692   0.000000
   21       -0.726578   0.000000
   22       -0.639800   0.000000
   23       -0.562143   0.000000
   24       -0.314527   0.000000
   25        0.961242   0.000000
   26        1.153987   0.000000
 
  0.1880340E+00  0.1880340E+00  0.0000000E+00  0.8333333E-02
    1      -15.847097   1.000000
    2      -15.805882   1.000000
    3      -15.360120   1.000000
    4      -15.309351   1.000000
    5       -7.495626   1.000000
    6       -7.394746   1.000000
    7       -6.648427   1.000000
    8       -6.549859   1.000000
    9       -6.506994   1.000000
   10       -6.440686   1.000000
   11       -5.930344   1.000000
   12       -5.774052   1.000000
   13       -4.766030   1.000000
   14       -4.738147   1.000000
   15       -4.094617   1.000000
   16       -3.811036   1.000000
   17       -3.531405   1.000000
   18       -3.485969   1.000000
   19       -1.343678   0.000000
   20       -1.081318   0.000000
   21       -0.721927   0.000000
   22       -0.644708   0.000000
   23       -0.520391   0.000000
   24       -0.274767   0.000000
   25        0.983332   0.000000
   26        1.192450   0.000000
 
  0.1965810E+00  0.1965810E+00  0.0000000E+00  0.8333333E-02
    1      -15.767720   1.000000
    2      -15.726742   1.000000
    3      -15.312940   1.000000
    4      -15.263215   1.000000
    5       -7.533243   1.000000
    6       -7.448901   1.000000
    7       -6.692646   1.000000
    8       -6.639038   1.000000
    9       -6.619485   1.000000
   10       -6.412265   1.000000
   11       -5.965259   1.000000
   12       -5.808707   1.000000
   13       -4.867504   1.000000
   14       -4.838576   1.000000
   15       -4.151638   1.000000
   16       -3.871182   1.000000
   17       -3.504565   1.000000
   18       -3.464950   1.000000
   19       -1.322441   0.000000
   20       -1.054039   0.000000
   21       -0.714496   0.000000
   22       -0.650776   0.000000
   23       -0.476919   0.000000
   24       -0.234544   0.000000
   25        1.001355   0.000000
   26        1.226770   0.000000
 
  0.2051280E+00  0.2051280E+00  0.0000000E+00  0.8333333E-02
    1      -15.689834   1.000000
    2      -15.649109   1.000000
    3      -15.266652   1.000000
    4      -15.217969   1.000000
    5       -7.576043   1.000000
    6       -7.503214   1.000000
    7       -6.816829   1.000000
    8       -6.771758   1.000000
    9       -6.598921   1.000000
   10       -6.376239   1.000000
   11       -5.989287   1.000000
   12       -5.834533   1.000000
   13       -4.977378   1.000000
   14       -4.947236   1.000000
   15       -4.213224   1.000000
   16       -3.935784   1.000000
   17       -3.474585   1.000000
   18       -3.438932   1.000000
   19       -1.288534   0.000000
   20       -1.012527   0.000000
   21       -0.705432   0.000000
   22       -0.658168   0.000000
   23       -0.433560   0.000000
   24       -0.195448   0.000000
   25        1.016581   0.000000
   26        1.257807   0.000000
 
  0.2136750E+00  0.2136750E+00  0.0000000E+00  0.8333333E-02
    1      -15.614101   1.000000
    2      -15.573644   1.000000
    3      -15.221625   1.000000
    4      -15.173965   1.000000
    5       -7.618821   1.000000
    6       -7.553799   1.000000
    7       -6.941330   1.000000
    8       -6.899779   1.000000
    9       -6.570263   1.000000
   10       -6.340070   1.000000
   11       -6.004172   1.000000
   12       -5.852422   1.000000
   13       -5.093847   1.000000
   14       -5.062157   1.000000
   15       -4.278680   1.000000
   16       -4.003738   1.000000
   17       -3.441711   1.000000
   18       -3.408735   1.000000
   19       -1.244714   0.000000
   20       -0.961483   0.000000
   21       -0.694859   0.000000
   22       -0.664540   0.000000
   23       -0.392174   0.000000
   24       -0.158982   0.000000
   25        1.030526   0.000000
   26        1.286727   0.000000
 
  0.2222220E+00  0.2222220E+00  0.0000000E+00  0.8333333E-02
    1      -15.541195   1.000000
    2      -15.501015   1.000000
    3      -15.178226   1.000000
    4      -15.131541   1.000000
    5       -7.657604   1.000000
    6       -7.597862   1.000000
    7       -7.060825   1.000000
    8       -7.021540   1.000000
    9       -6.540569   1.000000
   10       -6.306556   1.000000
   11       -6.011212   1.000000
   12       -5.863205   1.000000
   13       -5.215466   1.000000
   14       -5.181779   1.000000
   15       -4.347280   1.000000
   16       -4.074123   1.000000
   17       -3.405622   1.000000
   18       -3.374408   1.000000
   19       -1.195798   0.000000
   20       -0.911919   0.000000
   21       -0.681230   0.000000
   22       -0.661789   0.000000
   23       -0.354548   0.000000
   24       -0.126542   0.000000
   25        1.044831   0.000000
   26        1.314718   0.000000
 
  0.2307690E+00  0.2307690E+00  0.0000000E+00  0.8333333E-02
    1      -15.471772   1.000000
    2      -15.431862   1.000000
    3      -15.136811   1.000000
    4      -15.091073   1.000000
    5       -7.689493   1.000000
    6       -7.633287   1.000000
    7       -7.173613   1.000000
    8       -7.135987   1.000000
    9       -6.512587   1.000000
   10       -6.277399   1.000000
   11       -6.011399   1.000000
   12       -5.867671   1.000000
   13       -5.340995   1.000000
   14       -5.304690   1.000000
   15       -4.418254   1.000000
   16       -4.146085   1.000000
   17       -3.365839   1.000000
   18       -3.335614   1.000000
   19       -1.149065   0.000000
   20       -0.883917   0.000000
   21       -0.660825   0.000000
   22       -0.632697   0.000000
   23       -0.322269   0.000000
   24       -0.099331   0.000000
   25        1.061111   0.000000
   26        1.342842   0.000000
 
  0.2393160E+00  0.2393160E+00  0.0000000E+00  0.8333333E-02
    1      -15.406461   1.000000
    2      -15.366822   1.000000
    3      -15.097737   1.000000
    4      -15.052879   1.000000
    5       -7.712352   1.000000
    6       -7.658524   1.000000
    7       -7.278608   1.000000
    8       -7.242288   1.000000
    9       -6.487945   1.000000
   10       -6.253764   1.000000
   11       -6.005643   1.000000
   12       -5.866601   1.000000
   13       -5.469229   1.000000
   14       -5.429461   1.000000
   15       -4.490797   1.000000
   16       -4.218747   1.000000
   17       -3.321907   1.000000
   18       -3.292134   1.000000
   19       -1.113523   0.000000
   20       -0.890508   0.000000
   21       -0.627836   0.000000
   22       -0.567295   0.000000
   23       -0.296600   0.000000
   24       -0.078128   0.000000
   25        1.080610   0.000000
   26        1.372022   0.000000
 
  0.2478630E+00  0.2478630E+00  0.0000000E+00  0.8333333E-02
    1      -15.345843   1.000000
    2      -15.306453   1.000000
    3      -15.061322   1.000000
    4      -15.017302   1.000000
    5       -7.724635   1.000000
    6       -7.672379   1.000000
    7       -7.374970   1.000000
    8       -7.339809   1.000000
    9       -6.467714   1.000000
   10       -6.236643   1.000000
   11       -5.994814   1.000000
   12       -5.861006   1.000000
   13       -5.598799   1.000000
   14       -5.554217   1.000000
   15       -4.564024   1.000000
   16       -4.291225   1.000000
   17       -3.273764   1.000000
   18       -3.243983   1.000000
   19       -1.096981   0.000000
   20       -0.923378   0.000000
   21       -0.577632   0.000000
   22       -0.476688   0.000000
   23       -0.278090   0.000000
   24       -0.063190   0.000000
   25        1.104260   0.000000
   26        1.402676   0.000000
 
  0.2564100E+00  0.2564100E+00  0.0000000E+00  0.8333333E-02
    1      -15.290422   1.000000
    2      -15.251274   1.000000
    3      -15.027857   1.000000
    4      -14.984605   1.000000
    5       -7.725263   1.000000
    6       -7.674023   1.000000
    7       -7.462049   1.000000
    8       -7.427961   1.000000
    9       -6.452686   1.000000
   10       -6.227378   1.000000
   11       -5.980321   1.000000
   12       -5.852703   1.000000
   13       -5.727663   1.000000
   14       -5.675571   1.000000
   15       -4.636977   1.000000
   16       -4.362527   1.000000
   17       -3.221770   1.000000
   18       -3.191635   1.000000
   19       -1.101968   0.000000
   20       -0.971724   0.000000
   21       -0.510954   0.000000
   22       -0.374485   0.000000
   23       -0.266193   0.000000
   24       -0.053845   0.000000
   25        1.132223   0.000000
   26        1.435004   0.000000
 
  0.2649570E+00  0.2649570E+00  0.0000000E+00  0.8333333E-02
    1      -15.240646   1.000000
    2      -15.201708   1.000000
    3      -14.997616   1.000000
    4      -14.955057   1.000000
    5       -7.713737   1.000000
    6       -7.663061   1.000000
    7       -7.539251   1.000000
    8       -7.506296   1.000000
    9       -6.443753   1.000000
   10       -6.228546   1.000000
   11       -5.967302   1.000000
   12       -5.852825   1.000000
   13       -5.849695   1.000000
   14       -5.779517   1.000000
   15       -4.708600   1.000000
   16       -4.431614   1.000000
   17       -3.166829   1.000000
   18       -3.136081   1.000000
   19       -1.125685   0.000000
   20       -1.029498   0.000000
   21       -0.435103   0.000000
   22       -0.270523   0.000000
   23       -0.258091   0.000000
   24       -0.047927   0.000000
   25        1.164017   0.000000
   26        1.468597   0.000000
 
  0.2735040E+00  0.2735040E+00  0.0000000E+00  0.8333333E-02
    1      -15.196828   1.000000
    2      -15.158086   1.000000
    3      -14.970796   1.000000
    4      -14.928858   1.000000
    5       -7.690760   1.000000
    6       -7.640121   1.000000
    7       -7.605168   1.000000
    8       -7.573647   1.000000