    6    6    1    1
  0.7965567E+02  0.3322260E-09  0.3322260E-09  0.5000000E-08  0.5000000E-15
  1.000000000000000E-004
  CAR 
 (MoSe2)2                                
     36     80     26
 
  0.5000000E+00  0.0000000E+00  0.0000000E+00  0.1250000E-01
    1      -14.952384   1.000000
    2      -14.916969   1.000000
    3      -14.680837   1.000000
    4      -14.641470   1.000000
    5       -8.018660   1.000000
    6       -7.974574   1.000000
    7       -7.213748   1.000000
    8       -7.128520   1.000000
    9       -6.625677   1.000000
   10       -6.448356   1.000000
   11       -5.421862   1.000000
   12       -5.412225   1.000000
   13       -4.626573   1.000000
   14       -4.306193   1.000000
   15       -3.593823   1.000000
   16       -3.439522   1.000000
   17       -3.192147   1.000000
   18       -3.165025   1.000000
   19       -1.339282   0.000000
   20       -1.327876   0.000000
   21       -1.224231   0.000000
   22       -1.167503   0.000000
   23        0.411658   0.000000
   24        0.760227   0.000000
   25        1.341235   0.000000
   26        1.423262   0.000000
 
  0.4978903E+00  0.4219405E-02  0.0000000E+00  0.1250000E-01
    1      -14.952309   1.000000
    2      -14.916892   1.000000
    3      -14.680783   1.000000
    4      -14.641418   1.000000
    5       -8.018416   1.000000
    6       -7.974333   1.000000
    7       -7.213823   1.000000
    8       -7.128632   1.000000
    9       -6.625610   1.000000
   10       -6.448288   1.000000
   11       -5.422105   1.000000
   12       -5.412353   1.000000
   13       -4.626450   1.000000
   14       -4.306153   1.000000
   15       -3.595083   1.000000
   16       -3.441187   1.000000
   17       -3.191919   1.000000
   18       -3.164463   1.000000
   19       -1.339755   0.000000
   20       -1.328230   0.000000
   21       -1.223577   0.000000
   22       -1.166857   0.000000
   23        0.411930   0.000000
   24        0.760464   0.000000
   25        1.340027   0.000000
   26        1.422195   0.000000
 
  0.4957806E+00  0.8438810E-02  0.0000000E+00  0.1250000E-01
    1      -14.952084   1.000000
    2      -14.916667   1.000000
    3      -14.680602   1.000000
    4      -14.641240   1.000000
    5       -8.017683   1.000000
    6       -7.973602   1.000000
    7       -7.214041   1.000000
    8       -7.128954   1.000000
    9       -6.625410   1.000000
   10       -6.448061   1.000000
   11       -5.422771   1.000000
   12       -5.412700   1.000000
   13       -4.626060   1.000000
   14       -4.306006   1.000000
   15       -3.598837   1.000000
   16       -3.446113   1.000000
   17       -3.191237   1.000000
   18       -3.162809   1.000000
   19       -1.341122   0.000000
   20       -1.329235   0.000000
   21       -1.221633   0.000000
   22       -1.164914   0.000000
   23        0.412773   0.000000
   24        0.761210   0.000000
   25        1.336429   0.000000
   26        1.419028   0.000000
 
  0.4936709E+00  0.1265822E-01  0.0000000E+00  0.1250000E-01
    1      -14.951709   1.000000
    2      -14.916294   1.000000
    3      -14.680304   1.000000
    4      -14.640945   1.000000
    5       -8.016461   1.000000
    6       -7.972385   1.000000
    7       -7.214404   1.000000
    8       -7.129493   1.000000
    9       -6.625069   1.000000
   10       -6.447694   1.000000
   11       -5.423896   1.000000
   12       -5.413288   1.000000
   13       -4.625421   1.000000
   14       -4.305767   1.000000
   15       -3.605051   1.000000
   16       -3.454190   1.000000
   17       -3.190132   1.000000
   18       -3.160193   1.000000
   19       -1.343323   0.000000
   20       -1.330876   0.000000
   21       -1.218483   0.000000
   22       -1.161726   0.000000
   23        0.414169   0.000000
   24        0.762446   0.000000
   25        1.330451   0.000000
   26        1.413767   0.000000
 
  0.4915612E+00  0.1687762E-01  0.0000000E+00  0.1250000E-01
    1      -14.951187   1.000000
    2      -14.915773   1.000000
    3      -14.679886   1.000000
    4      -14.640539   1.000000
    5       -8.014753   1.000000
    6       -7.970682   1.000000
    7       -7.214915   1.000000
    8       -7.130257   1.000000
    9       -6.624594   1.000000
   10       -6.447168   1.000000
   11       -5.425454   1.000000
   12       -5.414108   1.000000
   13       -4.624536   1.000000
   14       -4.305442   1.000000
   15       -3.613665   1.000000
   16       -3.465199   1.000000
   17       -3.188657   1.000000
   18       -3.156797   1.000000
   19       -1.346284   0.000000
   20       -1.333110   0.000000
   21       -1.214231   0.000000
   22       -1.157336   0.000000
   23        0.416119   0.000000
   24        0.764157   0.000000
   25        1.322145   0.000000
   26        1.406446   0.000000
 
  0.4894515E+00  0.2109703E-01  0.0000000E+00  0.1250000E-01
    1      -14.950515   1.000000
    2      -14.915104   1.000000
    3      -14.679351   1.000000
    4      -14.640009   1.000000
    5       -8.012556   1.000000
    6       -7.968495   1.000000
    7       -7.215575   1.000000
    8       -7.131230   1.000000
    9       -6.623992   1.000000
   10       -6.446507   1.000000
   11       -5.427444   1.000000
   12       -5.415150   1.000000
   13       -4.623420   1.000000
   14       -4.305034   1.000000
   15       -3.624607   1.000000
   16       -3.478931   1.000000
   17       -3.186869   1.000000
   18       -3.152826   1.000000
   19       -1.349857   0.000000
   20       -1.335897   0.000000
   21       -1.208972   0.000000
   22       -1.151815   0.000000
   23        0.418617   0.000000
   24        0.766366   0.000000
   25        1.311568   0.000000
   26        1.397127   0.000000
 
  0.4873417E+00  0.2531643E-01  0.0000000E+00  0.1250000E-01
    1      -14.949695   1.000000
    2      -14.914288   1.000000
    3      -14.678697   1.000000
    4      -14.639362   1.000000
    5       -8.009871   1.000000
    6       -7.965822   1.000000
    7       -7.216386   1.000000
    8       -7.132422   1.000000
    9       -6.623245   1.000000
   10       -6.445692   1.000000
   11       -5.429844   1.000000
   12       -5.416407   1.000000
   13       -4.622084   1.000000
   14       -4.304553   1.000000
   15       -3.637770   1.000000
   16       -3.495139   1.000000
   17       -3.184826   1.000000
   18       -3.148472   1.000000
   19       -1.353948   0.000000
   20       -1.339153   0.000000
   21       -1.202816   0.000000
   22       -1.145217   0.000000
   23        0.421662   0.000000
   24        0.769053   0.000000
   25        1.298791   0.000000
   26        1.385862   0.000000
 
  0.4852320E+00  0.2953584E-01  0.0000000E+00  0.1250000E-01
    1      -14.948726   1.000000
    2      -14.913322   1.000000
    3      -14.677924   1.000000
    4      -14.638599   1.000000
    5       -8.006699   1.000000
    6       -7.962664   1.000000
    7       -7.217346   1.000000
    8       -7.133832   1.000000
    9       -6.622363   1.000000
   10       -6.444739   1.000000
   11       -5.432610   1.000000
   12       -5.417853   1.000000
   13       -4.620535   1.000000
   14       -4.304005   1.000000
   15       -3.653063   1.000000
   16       -3.513621   1.000000
   17       -3.182596   1.000000
   18       -3.143901   1.000000
   19       -1.358455   0.000000
   20       -1.342781   0.000000
   21       -1.195853   0.000000
   22       -1.137601   0.000000
   23        0.425261   0.000000
   24        0.772216   0.000000
   25        1.283922   0.000000
   26        1.372737   0.000000
 
  0.4831223E+00  0.3375524E-01  0.0000000E+00  0.1250000E-01
    1      -14.947613   1.000000
    2      -14.912214   1.000000
    3      -14.677036   1.000000
    4      -14.637721   1.000000
    5       -8.003043   1.000000
    6       -7.959024   1.000000
    7       -7.218462   1.000000
    8       -7.135463   1.000000
    9       -6.621356   1.000000
   10       -6.443645   1.000000
   11       -5.435758   1.000000
   12       -5.419491   1.000000
   13       -4.618805   1.000000
   14       -4.303404   1.000000
   15       -3.670398   1.000000
   16       -3.534184   1.000000
   17       -3.180254   1.000000
   18       -3.139293   1.000000
   19       -1.363353   0.000000
   20       -1.346863   0.000000
   21       -1.188173   0.000000
   22       -1.129058   0.000000
   23        0.429388   0.000000
   24        0.775841   0.000000
   25        1.267037   0.000000
   26        1.357826   0.000000
 
  0.4810126E+00  0.3797465E-01  0.0000000E+00  0.1250000E-01
    1      -14.946354   1.000000
    2      -14.910961   1.000000
    3      -14.676032   1.000000
    4      -14.636728   1.000000
    5       -7.998902   1.000000
    6       -7.954903   1.000000
    7       -7.219735   1.000000
    8       -7.137317   1.000000
    9       -6.620210   1.000000
   10       -6.442410   1.000000
   11       -5.439244   1.000000
   12       -5.421300   1.000000
   13       -4.616909   1.000000
   14       -4.302765   1.000000
   15       -3.689664   1.000000
   16       -3.556656   1.000000
   17       -3.177845   1.000000
   18       -3.134745   1.000000
   19       -1.368546   0.000000
   20       -1.351265   0.000000
   21       -1.179827   0.000000
   22       -1.119620   0.000000
   23        0.434046   0.000000
   24        0.779918   0.000000
   25        1.248251   0.000000
   26        1.341227   0.000000
 
  0.4789029E+00  0.4219405E-01  0.0000000E+00  0.1250000E-01
    1      -14.944950   1.000000
    2      -14.909564   1.000000
    3      -14.674912   1.000000
    4      -14.635620   1.000000
    5       -7.994277   1.000000
    6       -7.950300   1.000000
    7       -7.221167   1.000000
    8       -7.139395   1.000000
    9       -6.618927   1.000000
   10       -6.441025   1.000000
   11       -5.443021   1.000000
   12       -5.423262   1.000000
   13       -4.614869   1.000000
   14       -4.302101   1.000000
   15       -3.710767   1.000000
   16       -3.580893   1.000000
   17       -3.175424   1.000000
   18       -3.130348   1.000000
   19       -1.374004   0.000000
   20       -1.355971   0.000000
   21       -1.170866   0.000000
   22       -1.109339   0.000000
   23        0.439228   0.000000
   24        0.784435   0.000000
   25        1.227685   0.000000
   26        1.323038   0.000000
 
  0.4767932E+00  0.4641346E-01  0.0000000E+00  0.1250000E-01
    1      -14.943402   1.000000
    2      -14.908024   1.000000
    3      -14.673680   1.000000
    4      -14.634401   1.000000
    5       -7.989171   1.000000
    6       -7.945219   1.000000
    7       -7.222764   1.000000
    8       -7.141699   1.000000
    9       -6.617522   1.000000
   10       -6.439517   1.000000
   11       -5.447096   1.000000
   12       -5.425360   1.000000
   13       -4.612710   1.000000
   14       -4.301431   1.000000
   15       -3.733623   1.000000
   16       -3.606774   1.000000
   17       -3.173030   1.000000
   18       -3.126172   1.000000
   19       -1.379669   0.000000
   20       -1.360963   0.000000
   21       -1.161318   0.000000
   22       -1.098262   0.000000
   23        0.444919   0.000000
   24        0.789375   0.000000
   25        1.205453   0.000000
   26        1.303373   0.000000
 
  0.4746835E+00  0.5063286E-01  0.0000000E+00  0.1250000E-01
    1      -14.941717   1.000000
    2      -14.906346   1.000000
    3      -14.672337   1.000000
    4      -14.633071   1.000000
    5       -7.983587   1.000000
    6       -7.939663   1.000000
    7       -7.224528   1.000000
    8       -7.144232   1.000000
    9       -6.615983   1.000000
   10       -6.437871   1.000000
   11       -5.451458   1.000000
   12       -5.427604   1.000000
   13       -4.610460   1.000000
   14       -4.300775   1.000000
   15       -3.758143   1.000000
   16       -3.634190   1.000000
   17       -3.170705   1.000000
   18       -3.122258   1.000000
   19       -1.385580   0.000000
   20       -1.366235   0.000000
   21       -1.151242   0.000000
   22       -1.086440   0.000000
   23        0.451110   0.000000
   24        0.794715   0.000000
   25        1.181657   0.000000
   26        1.282322   0.000000
 
  0.4725738E+00  0.5485227E-01  0.0000000E+00  0.1250000E-01
    1      -14.939892   1.000000
    2      -14.904528   1.000000
    3      -14.670882   1.000000
    4      -14.631633   1.000000
    5       -7.977524   1.000000
    6       -7.933628   1.000000
    7       -7.226462   1.000000
    8       -7.146993   1.000000
    9       -6.614322   1.000000
   10       -6.436084   1.000000
   11       -5.456018   1.000000
   12       -5.429925   1.000000
   13       -4.608142   1.000000
   14       -4.300147   1.000000
   15       -3.784254   1.000000
   16       -3.663042   1.000000
   17       -3.168469   1.000000
   18       -3.118623   1.000000
   19       -1.391695   0.000000
   20       -1.371758   0.000000
   21       -1.140652   0.000000
   22       -1.073896   0.000000
   23        0.457796   0.000000
   24        0.800441   0.000000
   25        1.156457   0.000000
   26        1.260038   0.000000
 
  0.4704641E+00  0.5907167E-01  0.0000000E+00  0.1250000E-01
    1      -14.937933   1.000000
    2      -14.902573   1.000000
    3      -14.669307   1.000000
    4      -14.630088   1.000000
    5       -7.970985   1.000000
    6       -7.927120   1.000000
    7       -7.228563   1.000000
    8       -7.149989   1.000000
    9       -6.612539   1.000000
   10       -6.434152   1.000000
   11       -5.460776   1.000000
   12       -5.432334   1.000000
   13       -4.605782   1.000000
   14       -4.299585   1.000000
   15       -3.811871   1.000000
   16       -3.693240   1.000000
   17       -3.166339   1.000000
   18       -3.115286   1.000000
   19       -1.398000   0.000000
   20       -1.377510   0.000000
   21       -1.129574   0.000000
   22       -1.060657   0.000000
   23        0.464974   0.000000
   24        0.806506   0.000000
   25        1.129952   0.000000
   26        1.236624   0.000000
 
  0.4683544E+00  0.6329108E-01  0.0000000E+00  0.1250000E-01
    1      -14.935831   1.000000
    2      -14.900482   1.000000
    3      -14.667632   1.000000
    4      -14.628428   1.000000
    5       -7.963968   1.000000
    6       -7.920140   1.000000
    7       -7.230848   1.000000
    8       -7.153209   1.000000
    9       -6.610626   1.000000
   10       -6.432108   1.000000
   11       -5.465694   1.000000
   12       -5.434798   1.000000
   13       -4.603414   1.000000
   14       -4.299097   1.000000
   15       -3.840917   1.000000
   16       -3.724715   1.000000
   17       -3.164310   1.000000
   18       -3.112258   1.000000
   19       -1.404429   0.000000
   20       -1.383503   0.000000
   21       -1.117955   0.000000
   22       -1.046764   0.000000
   23        0.472606   0.000000
   24        0.812903   0.000000
   25        1.102267   0.000000
   26        1.212228   0.000000
 
  0.4662447E+00  0.6751048E-01  0.0000000E+00  0.1250000E-01
    1      -14.933597   1.000000
    2      -14.898257   1.000000
    3      -14.665852   1.000000
    4      -14.626665   1.000000
    5       -7.956487   1.000000
    6       -7.912693   1.000000
    7       -7.233316   1.000000
    8       -7.156667   1.000000
    9       -6.608614   1.000000
   10       -6.429938   1.000000
   11       -5.470738   1.000000
   12       -5.437303   1.000000
   13       -4.601066   1.000000
   14       -4.298717   1.000000
   15       -3.871347   1.000000
   16       -3.757384   1.000000
   17       -3.162430   1.000000
   18       -3.109527   1.000000
   19       -1.411060   0.000000
   20       -1.389728   0.000000
   21       -1.105879   0.000000
   22       -1.032238   0.000000
   23        0.480687   0.000000
   24        0.819559   0.000000
   25        1.073528   0.000000
   26        1.186979   0.000000
 
  0.4641349E+00  0.7172989E-01  0.0000000E+00  0.1250000E-01
    1      -14.931236   1.000000
    2      -14.895909   1.000000
    3      -14.663969   1.000000
    4      -14.624804   1.000000
    5       -7.948533   1.000000
    6       -7.904780   1.000000
    7       -7.235972   1.000000
    8       -7.160367   1.000000
    9       -6.606466   1.000000
   10       -6.427653   1.000000
   11       -5.475878   1.000000
   12       -5.439831   1.000000
   13       -4.598770   1.000000
   14       -4.298491   1.000000
   15       -3.903057   1.000000
   16       -3.791168   1.000000
   17       -3.160656   1.000000
   18       -3.107099   1.000000
   19       -1.417887   0.000000
   20       -1.396191   0.000000
   21       -1.093379   0.000000
   22       -1.017123   0.000000
   23        0.489199   0.000000
   24        0.826397   0.000000
   25        1.043854   0.000000
   26        1.161035   0.000000
 
  0.4620252E+00  0.7594929E-01  0.0000000E+00  0.1250000E-01
    1      -14.928746   1.000000
    2      -14.893431   1.000000
    3      -14.661983   1.000000
    4      -14.622846   1.000000
    5       -7.940114   1.000000
    6       -7.896402   1.000000
    7       -7.238817   1.000000
    8       -7.164303   1.000000
    9       -6.604207   1.000000
   10       -6.425253   1.000000
   11       -5.481067   1.000000
   12       -5.442361   1.000000
   13       -4.596552   1.000000
   14       -4.298448   1.000000
   15       -3.935999   1.000000
   16       -3.825986   1.000000
   17       -3.158997   1.000000
   18       -3.104930   1.000000
   19       -1.424897   0.000000
   20       -1.402853   0.000000
   21       -1.080434   0.000000
   22       -1.001410   0.000000
   23        0.498133   0.000000
   24        0.833338   0.000000
   25        1.013367   0.000000
   26        1.134572   0.000000
 
  0.4599155E+00  0.8016870E-01  0.0000000E+00  0.1250000E-01
    1      -14.926132   1.000000
    2      -14.890829   1.000000
    3      -14.659896   1.000000
    4      -14.620783   1.000000
    5       -7.931229   1.000000
    6       -7.887561   1.000000
    7       -7.241857   1.000000
    8       -7.168477   1.000000
    9       -6.601830   1.000000
   10       -6.422719   1.000000
   11       -5.486275   1.000000
   12       -5.444834   1.000000
   13       -4.594451   1.000000
   14       -4.298632   1.000000
   15       -3.970101   1.000000
   16       -3.861751   1.000000
   17       -3.157446   1.000000
   18       -3.103012   1.000000
   19       -1.432064   0.000000
   20       -1.409773   0.000000
   21       -1.067037   0.000000
   22       -0.985156   0.000000
   23        0.507459   0.000000
   24        0.840249   0.000000
   25        0.982178   0.000000
   26        1.107844   0.000000
 
  0.4578058E+00  0.8438810E-01  0.0000000E+00  0.1250000E-01
    1      -14.923396   1.000000
    2      -14.888103   1.000000
    3      -14.657710   1.000000
    4      -14.618619   1.000000
    5       -7.921881   1.000000
    6       -7.878258   1.000000
    7       -7.245092   1.000000
    8       -7.172887   1.000000
    9       -6.599342   1.000000
   10       -6.420061   1.000000
   11       -5.491476   1.000000
   12       -5.447250   1.000000
   13       -4.592496   1.000000
   14       -4.299101   1.000000
   15       -4.005293   1.000000
   16       -3.898359   1.000000
   17       -3.155993   1.000000
   18       -3.101313   1.000000
   19       -1.439387   0.000000
   20       -1.416901   0.000000
   21       -1.053211   0.000000
   22       -0.968368   0.000000
   23        0.517158   0.000000
   24        0.846910   0.000000
   25        0.950411   0.000000
   26        1.081148   0.000000
 
  0.4556961E+00  0.8860751E-01  0.0000000E+00  0.1250000E-01
    1      -14.920539   1.000000
    2      -14.885256   1.000000
    3      -14.655425   1.000000
    4      -14.616365   1.000000
    5       -7.912078   1.000000
    6       -7.868501   1.000000
    7       -7.248522   1.000000
    8       -7.177541   1.000000
    9       -6.596749   1.000000
   10       -6.417280   1.000000
   11       -5.496647   1.000000
   12       -5.449605   1.000000
   13       -4.590716   1.000000
   14       -4.299939   1.000000
   15       -4.041512   1.000000
   16       -3.935707   1.000000
   17       -3.154620   1.000000
   18       -3.099807   1.000000
   19       -1.446894   0.000000
   20       -1.424245   0.000000
   21       -1.038976   0.000000
   22       -0.951061   0.000000
   23        0.527211   0.000000
   24        0.852955   0.000000
   25        0.918161   0.000000
   26        1.054882   0.000000
 
  0.4535864E+00  0.9282691E-01  0.0000000E+00  0.1250000E-01
    1      -14.917564   1.000000
    2      -14.882297   1.000000
    3      -14.653052   1.000000
    4      -14.614017   1.000000
    5       -7.901818   1.000000
    6       -7.858295   1.000000
    7       -7.252169   1.000000
    8       -7.182434   1.000000
    9       -6.594040   1.000000
   10       -6.414403   1.000000
   11       -5.501765   1.000000
   12       -5.451863   1.000000
   13       -4.589184   1.000000
   14       -4.301249   1.000000
   15       -4.078674   1.000000
   16       -3.973664   1.000000
   17       -3.153314   1.000000
   18       -3.098497   1.000000
   19       -1.454583   0.000000
   20       -1.431834   0.000000
   21       -1.024346   0.000000
   22       -0.933297   0.000000
   23        0.537548   0.000000
   24        0.857784   0.000000
   25        0.885528   0.000000
   26        1.029742   0.000000
 
  0.4514767E+00  0.9704632E-01  0.0000000E+00  0.1250000E-01
    1      -14.914479   1.000000
    2      -14.879226   1.000000
    3      -14.650590   1.000000
    4      -14.611590   1.000000
    5       -7.891111   1.000000
    6       -7.847638   1.000000
    7       -7.256023   1.000000
    8       -7.187575   1.000000
    9       -6.591238   1.000000
   10       -6.411422   1.000000
   11       -5.506770   1.000000
   12       -5.454020   1.000000
   13       -4.587922   1.000000
   14       -4.303182   1.000000
   15       -4.116716   1.000000
   16       -4.012043   1.000000
   17       -3.152075   1.000000
   18       -3.097340   1.000000
   19       -1.462467   0.000000
   20       -1.439668   0.000000
   21       -1.009351   0.000000
   22       -0.915076   0.000000
   23        0.548124   0.000000
   24        0.852676   0.000000
   25        0.860341   0.000000
   26        1.006822   0.000000
 
  0.4493670E+00  0.1012657E+00  0.0000000E+00  0.1250000E-01
    1      -14.911279   1.000000
    2      -14.876039   1.000000
    3      -14.648042   1.000000
    4      -14.609071   1.000000
    5       -7.879952   1.000000
    6       -7.836532   1.000000
    7       -7.260099   1.000000
    8       -7.192949   1.000000
    9       -6.588322   1.000000
   10       -6.408333   1.000000
   11       -5.511638   1.000000
   12       -5.456017   1.000000
   13       -4.586998   1.000000
   14       -4.305963   1.000000
   15       -4.155537   1.000000
   16       -4.050574   1.000000
   17       -3.150862   1.000000
   18       -3.096289   1.000000
   19       -1.470520   0.000000
   20       -1.447684   0.000000
   21       -0.993974   0.000000
   22       -0.896399   0.000000
   23        0.558868   0.000000
   24        0.819741   0.000000
   25        0.858987   0.000000
   26        0.987882   0.000000
 
  0.4472573E+00  0.1054851E+00  0.0000000E+00  0.1250000E-01
    1      -14.907977   1.000000
    2      -14.872751   1.000000
    3      -14.645405   1.000000
    4      -14.606464   1.000000
    5       -7.868352   1.000000
    6       -7.824986   1.000000
    7       -7.264373   1.000000
    8       -7.198560   1.000000
    9       -6.585308   1.000000
   10       -6.405151   1.000000
   11       -5.516347   1.000000
   12       -5.457872   1.000000
   13       -4.586464   1.000000
   14       -4.309951   1.000000
   15       -4.195046   1.000000
   16       -4.088878   1.000000
   17       -3.149665   1.000000
   18       -3.095353   1.000000
   19       -1.478740   0.000000
   20       -1.455929   0.000000
   21       -0.978223   0.000000
   22       -0.877327   0.000000
   23        0.569686   0.000000
   24        0.786895   0.000000
   25        0.851706   0.000000
   26        0.974958   0.000000
 
  0.4451476E+00  0.1097045E+00  0.0000000E+00  0.1250000E-01
    1      -14.904569   1.000000
    2      -14.869358   1.000000
    3      -14.642684   1.000000
    4      -14.603774   1.000000
    5       -7.856310   1.000000
    6       -7.813002   1.000000
    7       -7.268859   1.000000
    8       -7.204401   1.000000
    9       -6.582192   1.000000
   10       -6.401865   1.000000
   11       -5.520861   1.000000
   12       -5.459528   1.000000
   13       -4.586421   1.000000
   14       -4.315742   1.000000
   15       -4.235115   1.000000
   16       -4.126317   1.000000
   17       -3.148470   1.000000
   18       -3.094488   1.000000
   19       -1.487131   0.000000
   20       -1.464387   0.000000
   21       -0.962119   0.000000
   22       -0.857863   0.000000
   23        0.580326   0.000000
   24        0.754441   0.000000
   25        0.837549   0.000000
   26        0.969086   0.000000
 
  0.4430379E+00  0.1139239E+00  0.0000000E+00  0.1250000E-01
    1      -14.901061   1.000000
    2      -14.865867   1.000000
    3      -14.639883   1.000000
    4      -14.601006   1.000000
    5       -7.843831   1.000000
    6       -7.800584   1.000000
    7       -7.273559   1.000000
    8       -7.210473   1.000000
    9       -6.578976   1.000000
   10       -6.398495   1.000000
   11       -5.525160   1.000000
   12       -5.460984   1.000000
   13       -4.586997   1.000000
   14       -4.324332   1.000000
   15       -4.275585   1.000000
   16       -4.161872   1.000000
   17       -3.147255   1.000000
   18       -3.093662   1.000000
   19       -1.495695   0.000000
   20       -1.473044   0.000000
   21       -0.945677   0.000000
   22       -0.838019   0.000000
   23        0.590277   0.000000
   24        0.722938   0.000000
   25        0.817516   0.000000
   26        0.969302   0.000000
 
  0.4409282E+00  0.1181433E+00  0.0000000E+00  0.1250000E-01
    1      -14.897456   1.000000
    2      -14.862280   1.000000
    3      -14.637000   1.000000
    4      -14.598159   1.000000
    5       -7.830921   1.000000
    6       -7.787734   1.000000
    7       -7.278466   1.000000
    8       -7.216769   1.000000
    9       -6.575666   1.000000
   10       -6.395027   1.000000
   11       -5.529210   1.000000
   12       -5.462217   1.000000
   13       -4.588377   1.000000
   14       -4.337258   1.000000
   15       -4.316234   1.000000
   16       -4.193959   1.000000
   17       -3.146000   1.000000
   18       -3.092856   1.000000
   19       -1.504424   0.000000
   20       -1.481908   0.000000
   21       -0.928907   0.000000
   22       -0.817833   0.000000
   23        0.598224   0.000000
   24        0.693769   0.000000
   25        0.793544   0.000000
   26        0.973725   0.000000
 
  0.4388184E+00  0.1223627E+00  0.0000000E+00  0.1250000E-01
    1      -14.893760   1.000000
    2      -14.858605   1.000000
    3      -14.634050   1.000000
    4      -14.595241   1.000000
    5       -7.817584   1.000000
    6       -7.774461   1.000000
    7       -7.283594   1.000000
    8       -7.223290   1.000000
    9       -6.572261   1.000000
   10       -6.391486   1.000000
   11       -5.533000   1.000000
   12       -5.463202   1.000000
   13       -4.590877   1.000000
   14       -4.356735   1.000000
   15       -4.356382   1.000000
   16       -4.220699   1.000000
   17       -3.144694   1.000000
   18       -3.092061   1.000000
   19       -1.513321   0.000000
   20       -1.490980   0.000000
   21       -0.911823   0.000000
   22       -0.797333   0.000000
   23        0.600268   0.000000
   24        0.670835   0.000000
   25        0.767219   0.000000
   26        0.980798   0.000000
 
  0.4367087E+00  0.1265822E+00  0.0000000E+00  0.1250000E-01
    1      -14.889977   1.000000
    2      -14.854841   1.000000
    3      -14.631033   1.000000
    4      -14.592261   1.000000
    5       -7.803826   1.000000
    6       -7.760768   1.000000
    7       -7.288935   1.000000
    8       -7.230033   1.000000
    9       -6.568776   1.000000
   10       -6.387860   1.000000
   11       -5.536512   1.000000
   12       -5.463947   1.000000
   13       -4.595006   1.000000
   14       -4.396521   1.000000
   15       -4.382793   1.000000
   16       -4.240980   1.000000
   17       -3.143345   1.000000
   18       -3.091261   1.000000
   19       -1.522403   0.000000
   20       -1.500262   0.000000
   21       -0.894489   0.000000
   22       -0.776556   0.000000
   23        0.589272   0.000000
   24        0.661326   0.000000
   25        0.739551   0.000000
   26        0.989546   0.000000
 
  0.4345990E+00  0.1308016E+00  0.0000000E+00  0.1250000E-01
    1      -14.886115   1.000000
    2      -14.850996   1.000000
    3      -14.627947   1.000000
    4      -14.589220   1.000000
    5       -7.789655   1.000000
    6       -7.746659   1.000000
    7       -7.294485   1.000000
    8       -7.236993   1.000000
    9       -6.565213   1.000000
   10       -6.384163   1.000000
   11       -5.539699   1.000000
   12       -5.464446   1.000000
   13       -4.601654   1.000000
   14       -4.434698   1.000000
   15       -4.415775   1.000000
   16       -4.255478   1.000000
   17       -3.141924   1.000000
   18       -3.090415   1.000000
   19       -1.531637   0.000000
   20       -1.509723   0.000000
   21       -0.876870   0.000000
   22       -0.755494   0.000000
   23        0.565837   0.000000
   24        0.664706   0.000000
   25        0.711113   0.000000
   26        0.999405   0.000000
 
  0.4324893E+00  0.1350210E+00  0.0000000E+00  0.1250000E-01
    1      -14.882171   1.000000
    2      -14.847070   1.000000
    3      -14.624788   1.000000
    4      -14.586103   1.000000
    5       -7.775068   1.000000
    6       -7.732138   1.000000
    7       -7.300224   1.000000
    8       -7.244152   1.000000