    6    6    1    1
  0.7965567E+02  0.3322260E-09  0.3322260E-09  0.5000000E-08  0.5000000E-15
  1.000000000000000E-004
  CAR 
 (MoSe2)2                                
     36     80     26
 
  0.0000000E+00  0.0000000E+00  0.0000000E+00  0.1250000E-01
    1      -17.009851   1.000000
    2      -16.968502   1.000000
    3      -16.043682   1.000000
    4      -15.979833   1.000000
    5       -8.392439   1.000000
    6       -8.140991   1.000000
    7       -5.071503   1.000000
    8       -5.067546   1.000000
    9       -5.059113   1.000000
   10       -5.054130   1.000000
   11       -4.984175   1.000000
   12       -4.303996   1.000000
   13       -4.122618   1.000000
   14       -4.114803   1.000000
   15       -4.041003   1.000000
   16       -4.034174   1.000000
   17       -3.280958   1.000000
   18       -2.897870   1.000000
   19       -0.041055   0.000000
   20       -0.012994   0.000000
   21       -0.005160   0.000000
   22        0.022662   0.000000
   23        0.220258   0.000000
   24        0.228253   0.000000
   25        0.262544   0.000000
   26        0.271029   0.000000
 
  0.8438819E-02  0.8438819E-02  0.0000000E+00  0.1250000E-01
    1      -17.007088   1.000000
    2      -16.965737   1.000000
    3      -16.042028   1.000000
    4      -15.978201   1.000000
    5       -8.388964   1.000000
    6       -8.137512   1.000000
    7       -5.079095   1.000000
    8       -5.075093   1.000000
    9       -5.056196   1.000000
   10       -5.051129   1.000000
   11       -4.991525   1.000000
   12       -4.333378   1.000000
   13       -4.127494   1.000000
   14       -4.120160   1.000000
   15       -4.037370   1.000000
   16       -4.008479   1.000000
   17       -3.281146   1.000000
   18       -2.899315   1.000000
   19       -0.036971   0.000000
   20       -0.024032   0.000000
   21       -0.000983   0.000000
   22        0.012533   0.000000
   23        0.210631   0.000000
   24        0.216059   0.000000
   25        0.255950   0.000000
   26        0.259512   0.000000
 
  0.1687764E-01  0.1687764E-01  0.0000000E+00  0.1250000E-01
    1      -16.998800   1.000000
    2      -16.957453   1.000000
    3      -16.037055   1.000000
    4      -15.973319   1.000000
    5       -8.378575   1.000000
    6       -8.127070   1.000000
    7       -5.101697   1.000000
    8       -5.097567   1.000000
    9       -5.047974   1.000000
   10       -5.042038   1.000000
   11       -5.012593   1.000000
   12       -4.402000   1.000000
   13       -4.142163   1.000000
   14       -4.135118   1.000000
   15       -4.026938   1.000000
   16       -3.952066   1.000000
   17       -3.281815   1.000000
   18       -2.903629   1.000000
   19       -0.058675   0.000000
   20       -0.022416   0.000000
   21       -0.019712   0.000000
   22        0.014122   0.000000
   23        0.161089   0.000000
   24        0.202290   0.000000
   25        0.217968   0.000000
   26        0.244829   0.000000
 
  0.2531646E-01  0.2531646E-01  0.0000000E+00  0.1250000E-01
    1      -16.985020   1.000000
    2      -16.943677   1.000000
    3      -16.028787   1.000000
    4      -15.965221   1.000000
    5       -8.361389   1.000000
    6       -8.109754   1.000000
    7       -5.138908   1.000000
    8       -5.134357   1.000000
    9       -5.052078   1.000000
   10       -5.028395   1.000000
   11       -5.027007   1.000000
   12       -4.487514   1.000000
   13       -4.166703   1.000000
   14       -4.159597   1.000000
   15       -4.010992   1.000000
   16       -3.887486   1.000000
   17       -3.283293   1.000000
   18       -2.911135   1.000000
   19       -0.111601   0.000000
   20       -0.068604   0.000000
   21       -0.000621   0.000000
   22        0.036619   0.000000
   23        0.084412   0.000000
   24        0.157447   0.000000
   25        0.179904   0.000000
   26        0.222367   0.000000
 
  0.3375528E-01  0.3375528E-01  0.0000000E+00  0.1250000E-01
    1      -16.965805   1.000000
    2      -16.924468   1.000000
    3      -16.017261   1.000000
    4      -15.953934   1.000000
    5       -8.337531   1.000000
    6       -8.085716   1.000000
    7       -5.189915   1.000000
    8       -5.184778   1.000000
    9       -5.095758   1.000000
   10       -5.009871   1.000000
   11       -5.006151   1.000000
   12       -4.580690   1.000000
   13       -4.201447   1.000000
   14       -4.194028   1.000000
   15       -3.991348   1.000000
   16       -3.823729   1.000000
   17       -3.286006   1.000000
   18       -2.922283   1.000000
   19       -0.180662   0.000000
   20       -0.132370   0.000000
   21       -0.012388   0.000000
   22        0.028994   0.000000
   23        0.066010   0.000000
   24        0.082122   0.000000
   25        0.149580   0.000000
   26        0.191801   0.000000
 
  0.4219409E-01  0.4219409E-01  0.0000000E+00  0.1250000E-01
    1      -16.941234   1.000000
    2      -16.899897   1.000000
    3      -16.002525   1.000000
    4      -15.939505   1.000000
    5       -8.307193   1.000000
    6       -8.055174   1.000000
    7       -5.253711   1.000000
    8       -5.247841   1.000000
    9       -5.150085   1.000000
   10       -4.983877   1.000000
   11       -4.979648   1.000000
   12       -4.677712   1.000000
   13       -4.246800   1.000000
   14       -4.238808   1.000000
   15       -3.969724   1.000000
   16       -3.764369   1.000000
   17       -3.290555   1.000000
   18       -2.937657   1.000000
   19       -0.261721   0.000000
   20       -0.206835   0.000000
   21       -0.121447   0.000000
   22       -0.007243   0.000000
   23        0.060409   0.000000
   24        0.103513   0.000000
   25        0.116444   0.000000
   26        0.156583   0.000000
 
  0.5063291E-01  0.5063291E-01  0.0000000E+00  0.1250000E-01
    1      -16.911404   1.000000
    2      -16.870079   1.000000
    3      -15.984649   1.000000
    4      -15.921998   1.000000
    5       -8.270647   1.000000
    6       -8.018439   1.000000
    7       -5.329087   1.000000
    8       -5.322341   1.000000
    9       -5.211459   1.000000
   10       -4.952335   1.000000
   11       -4.947878   1.000000
   12       -4.776613   1.000000
   13       -4.303239   1.000000
   14       -4.294256   1.000000
   15       -3.947740   1.000000
   16       -3.711228   1.000000
   17       -3.297683   1.000000
   18       -2.958026   1.000000
   19       -0.351273   0.000000
   20       -0.287934   0.000000
   21       -0.236046   0.000000
   22       -0.099604   0.000000
   23        0.048748   0.000000
   24        0.095907   0.000000
   25        0.125414   0.000000
   26        0.164208   0.000000
 
  0.5907173E-01  0.5907173E-01  0.0000000E+00  0.1250000E-01
    1      -16.876445   1.000000
    2      -16.835128   1.000000
    3      -15.963708   1.000000
    4      -15.901493   1.000000
    5       -8.228226   1.000000
    6       -7.975860   1.000000
    7       -5.414655   1.000000
    8       -5.406829   1.000000
    9       -5.277923   1.000000
   10       -4.915806   1.000000
   11       -4.912085   1.000000
   12       -4.875274   1.000000
   13       -4.371038   1.000000
   14       -4.360658   1.000000
   15       -3.926713   1.000000
   16       -3.665367   1.000000
   17       -3.308237   1.000000
   18       -2.984004   1.000000
   19       -0.447252   0.000000
   20       -0.371969   0.000000
   21       -0.348765   0.000000
   22       -0.192219   0.000000
   23       -0.002603   0.000000
   24        0.044568   0.000000
   25        0.172774   0.000000
   26        0.215420   0.000000
 
  0.6751055E-01  0.6751055E-01  0.0000000E+00  0.1250000E-01
    1      -16.836494   1.000000
    2      -16.795193   1.000000
    3      -15.939796   1.000000
    4      -15.878080   1.000000
    5       -8.180336   1.000000
    6       -7.927885   1.000000
    7       -5.508970   1.000000
    8       -5.499830   1.000000
    9       -5.347915   1.000000
   10       -4.976746   1.000000
   11       -4.874773   1.000000
   12       -4.868767   1.000000
   13       -4.450342   1.000000
   14       -4.438042   1.000000
   15       -3.907731   1.000000
   16       -3.627453   1.000000
   17       -3.323025   1.000000
   18       -3.016138   1.000000
   19       -0.549206   0.000000
   20       -0.455912   0.000000
   21       -0.452104   0.000000
   22       -0.280757   0.000000
   23       -0.063768   0.000000
   24       -0.015408   0.000000
   25        0.228491   0.000000
   26        0.275185   0.000000
 
  0.7594937E-01  0.7594937E-01  0.0000000E+00  0.1250000E-01
    1      -16.791720   1.000000
    2      -16.750445   1.000000
    3      -15.913021   1.000000
    4      -15.851865   1.000000
    5       -8.127457   1.000000
    6       -7.875068   1.000000
    7       -5.610398   1.000000
    8       -5.599715   1.000000
    9       -5.420139   1.000000
   10       -5.075326   1.000000
   11       -4.829848   1.000000
   12       -4.823595   1.000000
   13       -4.541011   1.000000
   14       -4.526137   1.000000
   15       -3.891671   1.000000
   16       -3.597964   1.000000
   17       -3.342836   1.000000
   18       -3.054786   1.000000
   19       -0.655327   0.000000
   20       -0.541370   0.000000
   21       -0.537557   0.000000
   22       -0.361628   0.000000
   23       -0.131019   0.000000
   24       -0.080628   0.000000
   25        0.288874   0.000000
   26        0.340404   0.000000
 
  0.8438819E-01  0.8438819E-01  0.0000000E+00  0.1250000E-01
    1      -16.742322   1.000000
    2      -16.701077   1.000000
    3      -15.883505   1.000000
    4      -15.822970   1.000000
    5       -8.070182   1.000000
    6       -7.818081   1.000000
    7       -5.717442   1.000000
    8       -5.704847   1.000000
    9       -5.493544   1.000000
   10       -5.172925   1.000000
   11       -4.781931   1.000000
   12       -4.775088   1.000000
   13       -4.642520   1.000000
   14       -4.624435   1.000000
   15       -3.879251   1.000000
   16       -3.577281   1.000000
   17       -3.368273   1.000000
   18       -3.099884   1.000000
   19       -0.761002   0.000000
   20       -0.616214   0.000000
   21       -0.615508   0.000000
   22       -0.432167   0.000000
   23       -0.202586   0.000000
   24       -0.149159   0.000000
   25        0.352328   0.000000
   26        0.409652   0.000000
 
  0.9282701E-01  0.9282701E-01  0.0000000E+00  0.1250000E-01
    1      -16.688521   1.000000
    2      -16.647317   1.000000
    3      -15.851398   1.000000
    4      -15.791544   1.000000
    5       -8.009225   1.000000
    6       -7.757752   1.000000
    7       -5.828442   1.000000
    8       -5.813494   1.000000
    9       -5.567383   1.000000
   10       -5.269223   1.000000
   11       -4.755823   1.000000
   12       -4.733093   1.000000
   13       -4.730288   1.000000
   14       -4.723309   1.000000
   15       -3.871084   1.000000
   16       -3.565666   1.000000
   17       -3.399620   1.000000
   18       -3.150885   1.000000
   19       -0.861826   0.000000
   20       -0.688927   0.000000
   21       -0.677527   0.000000
   22       -0.490759   0.000000
   23       -0.276664   0.000000
   24       -0.218889   0.000000
   25        0.417504   0.000000
   26        0.481688   0.000000
 
  0.1012658E+00  0.1012658E+00  0.0000000E+00  0.1250000E-01
    1      -16.630571   1.000000
    2      -16.589413   1.000000
    3      -15.816849   1.000000
    4      -15.757731   1.000000
    5       -7.945425   1.000000
    6       -7.695100   1.000000
    7       -5.941700   1.000000
    8       -5.923774   1.000000
    9       -5.641058   1.000000
   10       -5.364224   1.000000
   11       -4.875160   1.000000
   12       -4.847351   1.000000
   13       -4.680783   1.000000
   14       -4.672903   1.000000
   15       -3.867589   1.000000
   16       -3.563291   1.000000
   17       -3.436645   1.000000
   18       -3.206619   1.000000
   19       -0.955123   0.000000
   20       -0.757469   0.000000
   21       -0.725761   0.000000
   22       -0.536976   0.000000
   23       -0.351238   0.000000
   24       -0.287254   0.000000
   25        0.483170   0.000000
   26        0.555306   0.000000
 
  0.1097046E+00  0.1097046E+00  0.0000000E+00  0.1250000E-01
    1      -16.568744   1.000000
    2      -16.527647   1.000000
    3      -15.780045   1.000000
    4      -15.721708   1.000000
    5       -7.879822   1.000000
    6       -7.631426   1.000000
    7       -6.055466   1.000000
    8       -6.033711   1.000000
    9       -5.714304   1.000000
   10       -5.458385   1.000000
   11       -5.002705   1.000000
   12       -4.968244   1.000000
   13       -4.631474   1.000000
   14       -4.622680   1.000000
   15       -3.869128   1.000000
   16       -3.570217   1.000000
   17       -3.478477   1.000000
   18       -3.265264   1.000000
   19       -1.039675   0.000000
   20       -0.821291   0.000000
   21       -0.761295   0.000000
   22       -0.571445   0.000000
   23       -0.424103   0.000000
   24       -0.351287   0.000000
   25        0.548118   0.000000
   26        0.629289   0.000000
 
  0.1181435E+00  0.1181435E+00  0.0000000E+00  0.1250000E-01
    1      -16.503346   1.000000
    2      -16.462322   1.000000
    3      -15.741165   1.000000
    4      -15.683660   1.000000
    5       -7.813687   1.000000
    6       -7.568388   1.000000
    7       -6.167835   1.000000
    8       -6.141002   1.000000
    9       -5.787264   1.000000
   10       -5.552725   1.000000
   11       -5.135261   1.000000
   12       -5.092059   1.000000
   13       -4.585959   1.000000
   14       -4.576069   1.000000
   15       -3.875845   1.000000
   16       -3.586155   1.000000
   17       -3.523450   1.000000
   18       -3.324496   1.000000
   19       -1.115208   0.000000
   20       -0.880938   0.000000
   21       -0.784677   0.000000
   22       -0.595733   0.000000
   23       -0.492803   0.000000
   24       -0.407481   0.000000
   25        0.611164   0.000000
   26        0.702448   0.000000
 
  0.1265823E+00  0.1265823E+00  0.0000000E+00  0.1250000E-01
    1      -16.434714   1.000000
    2      -16.393785   1.000000
    3      -15.700423   1.000000
    4      -15.643794   1.000000
    5       -7.748634   1.000000
    6       -7.508208   1.000000
    7       -6.276729   1.000000
    8       -6.243035   1.000000
    9       -5.860559   1.000000
   10       -5.648953   1.000000
   11       -5.270047   1.000000
   12       -5.215210   1.000000
   13       -4.547727   1.000000
   14       -4.536421   1.000000
   15       -3.887589   1.000000
   16       -3.609951   1.000000
   17       -3.569029   1.000000
   18       -3.381952   1.000000
   19       -1.182096   0.000000
   20       -0.937073   0.000000
   21       -0.796732   0.000000
   22       -0.612338   0.000000
   23       -0.554908   0.000000
   24       -0.452133   0.000000
   25        0.671244   0.000000
   26        0.773662   0.000000
 
  0.1350211E+00  0.1350211E+00  0.0000000E+00  0.1250000E-01
    1      -16.363219   1.000000
    2      -16.322400   1.000000
    3      -15.658051   1.000000
    4      -15.602335   1.000000
    5       -7.686703   1.000000
    6       -7.453776   1.000000
    7       -6.379670   1.000000
    8       -6.336438   1.000000
    9       -5.935619   1.000000
   10       -5.749559   1.000000
   11       -5.403501   1.000000
   12       -5.333317   1.000000
   13       -4.521146   1.000000
   14       -4.507838   1.000000
   15       -3.903900   1.000000
   16       -3.638841   1.000000
   17       -3.611780   1.000000
   18       -3.435847   1.000000
   19       -1.240839   0.000000
   20       -0.989817   0.000000
   21       -0.798533   0.000000
   22       -0.624431   0.000000
   23       -0.608040   0.000000
   24       -0.481520   0.000000
   25        0.727405   0.000000
   26        0.841901   0.000000
 
  0.1434599E+00  0.1434599E+00  0.0000000E+00  0.1250000E-01
    1      -16.289273   1.000000
    2      -16.248580   1.000000
    3      -15.614294   1.000000
    4      -15.559524   1.000000
    5       -7.630524   1.000000
    6       -7.408912   1.000000
    7       -6.473774   1.000000
    8       -6.417233   1.000000
    9       -6.014910   1.000000
   10       -5.857306   1.000000
   11       -5.531174   1.000000
   12       -5.441803   1.000000
   13       -4.511067   1.000000
   14       -4.495194   1.000000
   15       -3.924235   1.000000
   16       -3.668544   1.000000
   17       -3.647703   1.000000
   18       -3.485495   1.000000
   19       -1.291834   0.000000
   20       -1.038482   0.000000
   21       -0.791685   0.000000
   22       -0.650106   0.000000
   23       -0.634924   0.000000
   24       -0.493692   0.000000
   25        0.778819   0.000000
   26        0.906248   0.000000
 
  0.1518987E+00  0.1518987E+00  0.0000000E+00  0.1250000E-01
    1      -16.213316   1.000000
    2      -16.172759   1.000000
    3      -15.569413   1.000000
    4      -15.515610   1.000000
    5       -7.583366   1.000000
    6       -7.378089   1.000000
    7       -6.555583   1.000000
    8       -6.480787   1.000000
    9       -6.101922   1.000000
   10       -5.974022   1.000000
   11       -5.647711   1.000000
   12       -5.537086   1.000000
   13       -4.521724   1.000000
   14       -4.502839   1.000000
   15       -3.948626   1.000000
   16       -3.695048   1.000000
   17       -3.672722   1.000000
   18       -3.530354   1.000000
   19       -1.334891   0.000000
   20       -1.081344   0.000000
   21       -0.778660   0.000000
   22       -0.679084   0.000000
   23       -0.644722   0.000000
   24       -0.489730   0.000000
   25        0.824822   0.000000
   26        0.965960   0.000000
 
  0.1603376E+00  0.1603376E+00  0.0000000E+00  0.1250000E-01
    1      -16.135807   1.000000
    2      -16.095406   1.000000
    3      -15.523687   1.000000
    4      -15.470878   1.000000
    5       -7.548995   1.000000
    6       -7.365512   1.000000
    7       -6.621232   1.000000
    8       -6.522854   1.000000
    9       -6.199959   1.000000
   10       -6.099469   1.000000
   11       -5.747926   1.000000
   12       -5.617701   1.000000
   13       -4.554997   1.000000
   14       -4.533156   1.000000
   15       -3.978142   1.000000
   16       -3.718204   1.000000
   17       -3.683995   1.000000
   18       -3.568082   1.000000
   19       -1.369159   0.000000
   20       -1.115942   0.000000
   21       -0.764323   0.000000
   22       -0.691521   0.000000
   23       -0.653286   0.000000
   24       -0.473132   0.000000
   25        0.865055   0.000000
   26        1.020523   0.000000
 
  0.1687764E+00  0.1687764E+00  0.0000000E+00  0.1250000E-01
    1      -16.057254   1.000000
    2      -16.017025   1.000000
    3      -15.477412   1.000000
    4      -15.425621   1.000000
    5       -7.530875   1.000000
    6       -7.373096   1.000000
    7       -6.667278   1.000000
    8       -6.541553   1.000000
    9       -6.310155   1.000000
   10       -6.231426   1.000000
   11       -5.829073   1.000000
   12       -5.684321   1.000000
   13       -4.609712   1.000000
   14       -4.585455   1.000000
   15       -4.014118   1.000000
   16       -3.744243   1.000000
   17       -3.681356   1.000000
   18       -3.592938   1.000000
   19       -1.393268   0.000000
   20       -1.139576   0.000000
   21       -0.755841   0.000000
   22       -0.682692   0.000000
   23       -0.660412   0.000000
   24       -0.447451   0.000000
   25        0.899349   0.000000
   26        1.069620   0.000000
 
  0.1772152E+00  0.1772152E+00  0.0000000E+00  0.1250000E-01
    1      -15.978194   1.000000
    2      -15.938162   1.000000
    3      -15.430902   1.000000
    4      -15.380141   1.000000
    5       -7.530671   1.000000
    6       -7.399025   1.000000
    7       -6.692150   1.000000
    8       -6.539236   1.000000
    9       -6.430293   1.000000
   10       -6.366524   1.000000
   11       -5.891788   1.000000
   12       -5.738481   1.000000
   13       -4.682539   1.000000
   14       -4.656637   1.000000
   15       -4.057017   1.000000
   16       -3.781051   1.000000
   17       -3.667396   1.000000
   18       -3.599927   1.000000
   19       -1.405659   0.000000
   20       -1.149989   0.000000
   21       -0.752667   0.000000
   22       -0.666762   0.000000
   23       -0.656090   0.000000
   24       -0.415488   0.000000
   25        0.927854   0.000000
   26        1.113254   0.000000
 
  0.1856540E+00  0.1856540E+00  0.0000000E+00  0.1250000E-01
    1      -15.899205   1.000000
    2      -15.859385   1.000000
    3      -15.384484   1.000000
    4      -15.334751   1.000000
    5       -7.546977   1.000000
    6       -7.438286   1.000000
    7       -6.697889   1.000000
    8       -6.555750   1.000000
    9       -6.530731   1.000000
   10       -6.492240   1.000000
   11       -5.938817   1.000000
   12       -5.781799   1.000000
   13       -4.769627   1.000000
   14       -4.742694   1.000000
   15       -4.106401   1.000000
   16       -3.829579   1.000000
   17       -3.645758   1.000000
   18       -3.591482   1.000000
   19       -1.405074   0.000000
   20       -1.145584   0.000000
   21       -0.749547   0.000000
   22       -0.673376   0.000000
   23       -0.620268   0.000000
   24       -0.379498   0.000000
   25        0.950973   0.000000
   26        1.151677   0.000000
 
  0.1940928E+00  0.1940928E+00  0.0000000E+00  0.1250000E-01
    1      -15.820891   1.000000
    2      -15.781294   1.000000
    3      -15.338490   1.000000
    4      -15.289781   1.000000
    5       -7.575608   1.000000
    6       -7.484895   1.000000
    7       -6.705408   1.000000
    8       -6.665822   1.000000
    9       -6.643102   1.000000
   10       -6.485266   1.000000
   11       -5.973025   1.000000
   12       -5.815562   1.000000
   13       -4.867672   1.000000
   14       -4.839962   1.000000
   15       -4.161464   1.000000
   16       -3.886512   1.000000
   17       -3.619516   1.000000
   18       -3.573458   1.000000
   19       -1.391080   0.000000
   20       -1.125933   0.000000
   21       -0.744909   0.000000
   22       -0.681147   0.000000
   23       -0.580036   0.000000
   24       -0.341396   0.000000
   25        0.969479   0.000000
   26        1.185406   0.000000
 
  0.2025317E+00  0.2025317E+00  0.0000000E+00  0.1250000E-01
    1      -15.743860   1.000000
    2      -15.704503   1.000000
    3      -15.293267   1.000000
    4      -15.245564   1.000000
    5       -7.611132   1.000000
    6       -7.533512   1.000000
    7       -6.817986   1.000000
    8       -6.774329   1.000000
    9       -6.659416   1.000000
   10       -6.451078   1.000000
   11       -5.996694   1.000000
   12       -5.840793   1.000000
   13       -4.974085   1.000000
   14       -4.945556   1.000000
   15       -4.221396   1.000000
   16       -3.949085   1.000000
   17       -3.590475   1.000000
   18       -3.549867   1.000000
   19       -1.364405   0.000000
   20       -1.092213   0.000000
   21       -0.738917   0.000000
   22       -0.690133   0.000000
   23       -0.538093   0.000000
   24       -0.302858   0.000000
   25        0.984387   0.000000
   26        1.215211   0.000000
 
  0.2109705E+00  0.2109705E+00  0.0000000E+00  0.1250000E-01
    1      -15.668737   1.000000
    2      -15.629632   1.000000
    3      -15.249163   1.000000
    4      -15.202454   1.000000
    5       -7.648422   1.000000
    6       -7.579990   1.000000
    7       -6.941463   1.000000
    8       -6.901605   1.000000
    9       -6.633274   1.000000
   10       -6.415045   1.000000
   11       -6.011391   1.000000
   12       -5.858251   1.000000
   13       -5.086962   1.000000
   14       -5.057329   1.000000
   15       -4.285431   1.000000
   16       -4.015646   1.000000
   17       -3.559200   1.000000
   18       -3.522377   1.000000
   19       -1.327247   0.000000
   20       -1.048090   0.000000
   21       -0.731565   0.000000
   22       -0.698625   0.000000
   23       -0.496437   0.000000
   24       -0.265482   0.000000
   25        0.996972   0.000000
   26        1.242032   0.000000
 
  0.2194093E+00  0.2194093E+00  0.0000000E+00  0.1250000E-01
    1      -15.596167   1.000000
    2      -15.557327   1.000000
    3      -15.206527   1.000000
    4      -15.160775   1.000000
    5       -7.683350   1.000000
    6       -7.621290   1.000000
    7       -7.060743   1.000000
    8       -7.023189   1.000000
    9       -6.604628   1.000000
   10       -6.380617   1.000000
   11       -6.018281   1.000000
   12       -5.868656   1.000000
   13       -5.204857   1.000000
   14       -5.173715   1.000000
   15       -4.352862   1.000000
   16       -4.085060   1.000000
   17       -3.525469   1.000000
   18       -3.491348   1.000000
   19       -1.283683   0.000000
   20       -1.001825   0.000000
   21       -0.721714   0.000000
   22       -0.700927   0.000000
   23       -0.456958   0.000000
   24       -0.230743   0.000000
   25        1.008675   0.000000
   26        1.266950   0.000000
 
  0.2278481E+00  0.2278481E+00  0.0000000E+00  0.1250000E-01
    1      -15.526776   1.000000
    2      -15.488194   1.000000
    3      -15.165699   1.000000
    4      -15.120872   1.000000
    5       -7.712783   1.000000
    6       -7.655104   1.000000
    7       -7.173905   1.000000
    8       -7.137995   1.000000
    9       -6.576807   1.000000
   10       -6.349872   1.000000
   11       -6.018253   1.000000
   12       -5.872642   1.000000
   13       -5.326598   1.000000
   14       -5.293369   1.000000
   15       -4.422949   1.000000
   16       -4.156419   1.000000
   17       -3.488667   1.000000
   18       -3.456388   1.000000
   19       -1.239938   0.000000
   20       -0.968709   0.000000
   21       -0.706383   0.000000
   22       -0.684393   0.000000
   23       -0.421244   0.000000
   24       -0.199926   0.000000
   25        1.020987   0.000000
   26        1.291033   0.000000
 
  0.2362869E+00  0.2362869E+00  0.0000000E+00  0.1250000E-01
    1      -15.461175   1.000000
    2      -15.422853   1.000000
    3      -15.127017   1.000000
    4      -15.083065   1.000000
    5       -7.734412   1.000000
    6       -7.679748   1.000000
    7       -7.279824   1.000000
    8       -7.245207   1.000000
    9       -6.551784   1.000000
   10       -6.324222   1.000000
   11       -6.012110   1.000000
   12       -5.870915   1.000000
   13       -5.451113   1.000000
   14       -5.415054   1.000000
   15       -4.494938   1.000000
   16       -4.228878   1.000000
   17       -3.448116   1.000000
   18       -3.417041   1.000000
   19       -1.204122   0.000000
   20       -0.964562   0.000000
   21       -0.680734   0.000000
   22       -0.636299   0.000000
   23       -0.390648   0.000000
   24       -0.173986   0.000000
   25        1.035190   0.000000
   26        1.315210   0.000000
 
  0.2447258E+00  0.2447258E+00  0.0000000E+00  0.1250000E-01
    1      -15.399935   1.000000
    2      -15.361862   1.000000
    3      -15.090801   1.000000
    4      -15.047672   1.000000
    5       -7.746521   1.000000
    6       -7.693939   1.000000
    7       -7.377673   1.000000
    8       -7.344147   1.000000
    9       -6.530832   1.000000
   10       -6.304738   1.000000
   11       -6.000639   1.000000
   12       -5.864247   1.000000
   13       -5.577242   1.000000
   14       -5.537288   1.000000
   15       -4.568029   1.000000
   16       -4.301579   1.000000
   17       -3.403359   1.000000
   18       -3.372994   1.000000
   19       -1.184239   0.000000
   20       -0.989528   0.000000
   21       -0.639925   0.000000
   22       -0.559338   0.000000
   23       -0.366004   0.000000
   24       -0.153421   0.000000
   25        1.052306   0.000000
   26        1.340185   0.000000
 
  0.2531646E+00  0.2531646E+00  0.0000000E+00  0.1250000E-01
    1      -15.343552   1.000000
    2      -15.305718   1.000000
    3      -15.057323   1.000000
    4      -15.014957   1.000000
    5       -7.747890   1.000000
    6       -7.696712   1.000000
    7       -7.466761   1.000000
    8       -7.434238   1.000000
    9       -6.514824   1.000000
   10       -6.292492   1.000000
   11       -5.984927   1.000000
   12       -5.854030   1.000000
   13       -5.703372   1.000000
   14       -5.657616   1.000000
   15       -4.641349   1.000000
   16       -4.373619   1.000000
   17       -3.354346   1.000000
   18       -3.324260   1.000000
   19       -1.184753   0.000000
   20       -1.034126   0.000000
   21       -0.582834   0.000000
   22       -0.465779   0.000000
   23       -0.347226   0.000000
   24       -0.138020   0.000000
   25        1.072943   0.000000
   26        1.366341   0.000000
 
  0.2616034E+00  0.2616034E+00  0.0000000E+00  0.1250000E-01
    1      -15.292480   1.000000
    2      -15.254858   1.000000
    3      -15.026861   1.000000
    4      -14.985197   1.000000
    5       -7.737800   1.000000
    6       -7.687516   1.000000
    7       -7.546499   1.000000
    8       -7.515019   1.000000
    9       -6.504531   1.000000
   10       -6.289122   1.000000
   11       -5.968263   1.000000
   12       -5.847155   1.000000
   13       -5.825535   1.000000
   14       -5.767381   1.000000
   15       -4.713936   1.000000
   16       -4.444039   1.000000
   17       -3.301564   1.000000
   18       -3.271376   1.000000
   19       -1.204946   0.000000
   20       -1.091076   0.000000
   21       -0.514272   0.000000
   22       -0.366393   0.000000
   23       -0.332477   0.000000
   24       -0.126362   0.000000
   25        1.097065   0.000000
   26        1.393626   0.000000
 
  0.2700422E+00  0.2700422E+00  0.0000000E+00  0.1250000E-01
    1      -15.247062   1.000000
    2      -15.209633   1.000000
    3      -14.999620   1.000000
    4      -14.958583   1.000000
    5       -7.716485   1.000000
    6       -7.666558   1.000000
    7       -7.615823   1.000000
    8       -7.585611   1.000000