    6    6    1    1
  0.7965567E+02  0.3322260E-09  0.3322260E-09  0.5000000E-08  0.5000000E-15
  1.000000000000000E-004
  CAR 
 (MoSe2)2                                
     36    120     22
 
  0.0000000E+00  0.0000000E+00  0.0000000E+00  0.8333333E-02
    1      -17.151070   1.000000
    2      -17.108031   1.000000
    3      -16.220528   1.000000
    4      -16.155681   1.000000
    5       -8.438620   1.000000
    6       -8.177303   1.000000
    7       -5.114858   1.000000
    8       -5.090533   1.000000
    9       -5.090093   1.000000
   10       -4.976617   1.000000
   11       -4.974610   1.000000
   12       -4.422865   1.000000
   13       -4.190994   1.000000
   14       -4.173586   1.000000
   15       -3.983933   1.000000
   16       -3.974385   1.000000
   17       -3.259130   1.000000
   18       -2.884528   1.000000
   19       -0.145023   0.000000
   20       -0.109407   0.000000
   21       -0.083058   0.000000
   22       -0.060428   0.000000
 
  0.1282051E-01  0.0000000E+00  0.0000000E+00  0.8333333E-02
    1      -17.148941   1.000000
    2      -17.105902   1.000000
    3      -16.219254   1.000000
    4      -16.154423   1.000000
    5       -8.435825   1.000000
    6       -8.174497   1.000000
    7       -5.120205   1.000000
    8       -5.089559   1.000000
    9       -5.088046   1.000000
   10       -4.982960   1.000000
   11       -4.980824   1.000000
   12       -4.450113   1.000000
   13       -4.187333   1.000000
   14       -4.149737   1.000000
   15       -3.987983   1.000000
   16       -3.978153   1.000000
   17       -3.259078   1.000000
   18       -2.885485   1.000000
   19       -0.155929   0.000000
   20       -0.118434   0.000000
   21       -0.097748   0.000000
   22       -0.063764   0.000000
 
  0.2564103E-01  0.0000000E+00  0.0000000E+00  0.8333333E-02
    1      -17.142551   1.000000
    2      -17.099512   1.000000
    3      -16.215417   1.000000
    4      -16.150659   1.000000
    5       -8.427489   1.000000
    6       -8.166059   1.000000
    7       -5.137859   1.000000
    8       -5.084759   1.000000
    9       -5.081876   1.000000
   10       -5.001736   1.000000
   11       -4.999183   1.000000
   12       -4.513345   1.000000
   13       -4.176822   1.000000
   14       -4.097347   1.000000
   15       -3.999981   1.000000
   16       -3.988809   1.000000
   17       -3.259016   1.000000
   18       -2.888312   1.000000
   19       -0.182052   0.000000
   20       -0.142585   0.000000
   21       -0.077796   0.000000
   22       -0.039032   0.000000
 
  0.3846154E-01  0.0000000E+00  0.0000000E+00  0.8333333E-02
    1      -17.131916   1.000000
    2      -17.088879   1.000000
    3      -16.209032   1.000000
    4      -16.144411   1.000000
    5       -8.413660   1.000000
    6       -8.152030   1.000000
    7       -5.167709   1.000000
    8       -5.076246   1.000000
    9       -5.072815   1.000000
   10       -5.031551   1.000000
   11       -5.028174   1.000000
   12       -4.591846   1.000000
   13       -4.161034   1.000000
   14       -4.044507   1.000000
   15       -4.019564   1.000000
   16       -3.999038   1.000000
   17       -3.259081   1.000000
   18       -2.893150   1.000000
   19       -0.223509   0.000000
   20       -0.176800   0.000000
   21       -0.048498   0.000000
   22       -0.018028   0.000000
 
  0.5128205E-01  0.0000000E+00  0.0000000E+00  0.8333333E-02
    1      -17.117080   1.000000
    2      -17.074043   1.000000
    3      -16.200126   1.000000
    4      -16.135691   1.000000
    5       -8.394416   1.000000
    6       -8.132517   1.000000
    7       -5.207898   1.000000
    8       -5.084214   1.000000
    9       -5.081063   1.000000
   10       -5.052170   1.000000
   11       -5.047382   1.000000
   12       -4.677455   1.000000
   13       -4.142495   1.000000
   14       -4.046380   1.000000
   15       -4.045824   1.000000
   16       -3.962008   1.000000
   17       -3.259538   1.000000
   18       -2.900344   1.000000
   19       -0.277861   0.000000
   20       -0.229919   0.000000
   21       -0.051079   0.000000
   22       -0.040412   0.000000
 
  0.6410256E-01  0.0000000E+00  0.0000000E+00  0.8333333E-02
    1      -17.098084   1.000000
    2      -17.055050   1.000000
    3      -16.188726   1.000000
    4      -16.124531   1.000000
    5       -8.369862   1.000000
    6       -8.107629   1.000000
    7       -5.256629   1.000000
    8       -5.134804   1.000000
    9       -5.130780   1.000000
   10       -5.036925   1.000000
   11       -5.032026   1.000000
   12       -4.767102   1.000000
   13       -4.126229   1.000000
   14       -4.077871   1.000000
   15       -4.075572   1.000000
   16       -3.906022   1.000000
   17       -3.260706   1.000000
   18       -2.910242   1.000000
   19       -0.342296   0.000000
   20       -0.289406   0.000000
   21       -0.139840   0.000000
   22       -0.034407   0.000000
 
  0.7692308E-01  0.0000000E+00  0.0000000E+00  0.8333333E-02
    1      -17.074985   1.000000
    2      -17.031952   1.000000
    3      -16.174872   1.000000
    4      -16.110967   1.000000
    5       -8.340144   1.000000
    6       -8.077535   1.000000
    7       -5.312352   1.000000
    8       -5.199114   1.000000
    9       -5.194341   1.000000
   10       -5.014111   1.000000
   11       -5.009050   1.000000
   12       -4.859452   1.000000
   13       -4.135004   1.000000
   14       -4.117721   1.000000
   15       -4.087490   1.000000
   16       -3.853876   1.000000
   17       -3.263021   1.000000
   18       -2.923349   1.000000
   19       -0.413428   0.000000
   20       -0.353562   0.000000
   21       -0.241745   0.000000
   22       -0.116248   0.000000
 
  0.8974359E-01  0.0000000E+00  0.0000000E+00  0.8333333E-02
    1      -17.047855   1.000000
    2      -17.004828   1.000000
    3      -16.158608   1.000000
    4      -16.095046   1.000000
    5       -8.305448   1.000000
    6       -8.042432   1.000000
    7       -5.373884   1.000000
    8       -5.273343   1.000000
    9       -5.267930   1.000000
   10       -4.986781   1.000000
   11       -4.981933   1.000000
   12       -4.953483   1.000000
   13       -4.175668   1.000000
   14       -4.163707   1.000000
   15       -4.076141   1.000000
   16       -3.808753   1.000000
   17       -3.267026   1.000000
   18       -2.940210   1.000000
   19       -0.488612   0.000000
   20       -0.420136   0.000000
   21       -0.344521   0.000000
   22       -0.202384   0.000000
 
  0.1025641E+00  0.0000000E+00  0.0000000E+00  0.8333333E-02
    1      -17.016780   1.000000
    2      -16.973761   1.000000
    3      -16.139992   1.000000
    4      -16.076823   1.000000
    5       -8.266007   1.000000
    6       -8.002569   1.000000
    7       -5.440375   1.000000
    8       -5.356149   1.000000
    9       -5.350264   1.000000
   10       -5.050265   1.000000
   11       -4.955422   1.000000
   12       -4.949684   1.000000
   13       -4.225662   1.000000
   14       -4.214830   1.000000
   15       -4.065104   1.000000
   16       -3.772300   1.000000
   17       -3.273347   1.000000
   18       -2.961417   1.000000
   19       -0.566263   0.000000
   20       -0.486340   0.000000
   21       -0.445559   0.000000
   22       -0.283535   0.000000
 
  0.1153846E+00  0.0000000E+00  0.0000000E+00  0.8333333E-02
    1      -16.981857   1.000000
    2      -16.938854   1.000000
    3      -16.119093   1.000000
    4      -16.056366   1.000000
    5       -8.222103   1.000000
    6       -7.958264   1.000000
    7       -5.511462   1.000000
    8       -5.446221   1.000000
    9       -5.440330   1.000000
   10       -5.147827   1.000000
   11       -4.920283   1.000000
   12       -4.914340   1.000000
   13       -4.280745   1.000000
   14       -4.270263   1.000000
   15       -4.059390   1.000000
   16       -3.745665   1.000000
   17       -3.282660   1.000000
   18       -2.987586   1.000000
   19       -0.647221   0.000000
   20       -0.550439   0.000000
   21       -0.538263   0.000000
   22       -0.358847   0.000000
 
  0.1282051E+00  0.0000000E+00  0.0000000E+00  0.8333333E-02
    1      -16.943207   1.000000
    2      -16.900222   1.000000
    3      -16.095983   1.000000
    4      -16.033748   1.000000
    5       -8.174075   1.000000
    6       -7.909888   1.000000
    7       -5.587634   1.000000
    8       -5.541506   1.000000
    9       -5.537050   1.000000
   10       -5.246869   1.000000
   11       -4.881586   1.000000
   12       -4.875351   1.000000
   13       -4.339636   1.000000
   14       -4.329262   1.000000
   15       -4.060686   1.000000
   16       -3.729716   1.000000
   17       -3.295634   1.000000
   18       -3.019170   1.000000
   19       -0.733537   0.000000
   20       -0.615131   0.000000
   21       -0.611938   0.000000
   22       -0.427863   0.000000
 
  0.1410256E+00  0.0000000E+00  0.0000000E+00  0.8333333E-02
    1      -16.900956   1.000000
    2      -16.857996   1.000000
    3      -16.070750   1.000000
    4      -16.009056   1.000000
    5       -8.122332   1.000000
    6       -7.857917   1.000000
    7       -5.672304   1.000000
    8       -5.639405   1.000000
    9       -5.637286   1.000000
   10       -5.347283   1.000000
   11       -4.839574   1.000000
   12       -4.832964   1.000000
   13       -4.401476   1.000000
   14       -4.391086   1.000000
   15       -4.069933   1.000000
   16       -3.724893   1.000000
   17       -3.312903   1.000000
   18       -3.056545   1.000000
   19       -0.823638   0.000000
   20       -0.673212   0.000000
   21       -0.671431   0.000000
   22       -0.481321   0.000000
 
  0.1538462E+00  0.0000000E+00  0.0000000E+00  0.8333333E-02
    1      -16.855257   1.000000
    2      -16.812328   1.000000
    3      -16.043491   1.000000
    4      -15.982387   1.000000
    5       -8.067366   1.000000
    6       -7.802914   1.000000
    7       -5.771165   1.000000
    8       -5.746339   1.000000
    9       -5.726665   1.000000
   10       -5.449084   1.000000
   11       -4.794532   1.000000
   12       -4.787470   1.000000
   13       -4.465565   1.000000
   14       -4.455127   1.000000
   15       -4.087576   1.000000
   16       -3.731271   1.000000
   17       -3.334943   1.000000
   18       -3.099734   1.000000
   19       -0.912423   0.000000
   20       -0.729381   0.000000
   21       -0.713951   0.000000
   22       -0.516396   0.000000
 
  0.1666667E+00  0.0000000E+00  0.0000000E+00  0.8333333E-02
    1      -16.806275   1.000000
    2      -16.763382   1.000000
    3      -16.014317   1.000000
    4      -15.953841   1.000000
    5       -8.009737   1.000000
    6       -7.745589   1.000000
    7       -5.880430   1.000000
    8       -5.856746   1.000000
    9       -5.812211   1.000000
   10       -5.552232   1.000000
   11       -4.746697   1.000000
   12       -4.739110   1.000000
   13       -4.531204   1.000000
   14       -4.520703   1.000000
   15       -4.113551   1.000000
   16       -3.748440   1.000000
   17       -3.362009   1.000000
   18       -3.148479   1.000000
   19       -0.995541   0.000000
   20       -0.784861   0.000000
   21       -0.738901   0.000000
   22       -0.533886   0.000000
 
  0.1794872E+00  0.0000000E+00  0.0000000E+00  0.8333333E-02
    1      -16.754197   1.000000
    2      -16.711341   1.000000
    3      -15.983348   1.000000
    4      -15.923553   1.000000
    5       -7.950190   1.000000
    6       -7.686816   1.000000
    7       -5.994710   1.000000
    8       -5.969433   1.000000
    9       -5.898219   1.000000
   10       -5.656751   1.000000
   11       -4.696590   1.000000
   12       -4.688206   1.000000
   13       -4.597667   1.000000
   14       -4.587284   1.000000
   15       -4.147363   1.000000
   16       -3.775569   1.000000
   17       -3.394206   1.000000
   18       -3.202163   1.000000
   19       -1.070284   0.000000
   20       -0.836082   0.000000
   21       -0.749118   0.000000
   22       -0.526226   0.000000
 
  0.1923077E+00  0.0000000E+00  0.0000000E+00  0.8333333E-02
    1      -16.699221   1.000000
    2      -16.656416   1.000000
    3      -15.950720   1.000000
    4      -15.891638   1.000000
    5       -7.889587   1.000000
    6       -7.627746   1.000000
    7       -6.111510   1.000000
    8       -6.083127   1.000000
    9       -5.985998   1.000000
   10       -5.762538   1.000000
   11       -4.667255   1.000000
   12       -4.654759   1.000000
   13       -4.641581   1.000000
   14       -4.634579   1.000000
   15       -4.188127   1.000000
   16       -3.811435   1.000000
   17       -3.431236   1.000000
   18       -3.259882   1.000000
   19       -1.134966   0.000000
   20       -0.881316   0.000000
   21       -0.745396   0.000000
   22       -0.513332   0.000000
 
  0.2051282E+00  0.0000000E+00  0.0000000E+00  0.8333333E-02
    1      -16.641572   1.000000
    2      -16.598829   1.000000
    3      -15.916582   1.000000
    4      -15.858247   1.000000
    5       -7.829036   1.000000
    6       -7.569887   1.000000
    7       -6.229260   1.000000
    8       -6.196290   1.000000
    9       -6.075852   1.000000
   10       -5.869528   1.000000
   11       -4.732837   1.000000
   12       -4.721489   1.000000
   13       -4.588819   1.000000
   14       -4.579827   1.000000
   15       -4.234652   1.000000
   16       -3.854554   1.000000
   17       -3.472520   1.000000
   18       -3.320479   1.000000
   19       -1.188693   0.000000
   20       -0.919522   0.000000
   21       -0.728966   0.000000
   22       -0.518966   0.000000
 
  0.2179487E+00  0.0000000E+00  0.0000000E+00  0.8333333E-02
    1      -16.581489   1.000000
    2      -16.538821   1.000000
    3      -15.881088   1.000000
    4      -15.823543   1.000000
    5       -7.769954   1.000000
    6       -7.515233   1.000000
    7       -6.346354   1.000000
    8       -6.306887   1.000000
    9       -6.167704   1.000000
   10       -5.977499   1.000000
   11       -4.799459   1.000000
   12       -4.788098   1.000000
   13       -4.533141   1.000000
   14       -4.523257   1.000000
   15       -4.285537   1.000000
   16       -3.903294   1.000000
   17       -3.517121   1.000000
   18       -3.382477   1.000000
   19       -1.231063   0.000000
   20       -0.950126   0.000000
   21       -0.700298   0.000000
   22       -0.581649   0.000000
 
  0.2307692E+00  0.0000000E+00  0.0000000E+00  0.8333333E-02
    1      -16.519247   1.000000
    2      -16.476672   1.000000
    3      -15.844424   1.000000
    4      -15.787690   1.000000
    5       -7.714210   1.000000
    6       -7.466634   1.000000
    7       -6.460978   1.000000
    8       -6.412331   1.000000
    9       -6.261458   1.000000
   10       -6.086187   1.000000
   11       -4.865346   1.000000
   12       -4.853861   1.000000
   13       -4.476368   1.000000
   14       -4.465559   1.000000
   15       -4.339320   1.000000
   16       -3.956002   1.000000
   17       -3.563854   1.000000
   18       -3.444389   1.000000
   19       -1.262147   0.000000
   20       -0.973183   0.000000
   21       -0.662542   0.000000
   22       -0.630600   0.000000
 
  0.2435897E+00  0.0000000E+00  0.0000000E+00  0.8333333E-02
    1      -16.455144   1.000000
    2      -16.412672   1.000000
    3      -15.806771   1.000000
    4      -15.750882   1.000000
    5       -7.664332   1.000000
    6       -7.428010   1.000000
    7       -6.570812   1.000000
    8       -6.509006   1.000000
    9       -6.356665   1.000000
   10       -6.195191   1.000000
   11       -4.930037   1.000000
   12       -4.918439   1.000000
   13       -4.419666   1.000000
   14       -4.407123   1.000000
   15       -4.393905   1.000000
   16       -4.011123   1.000000
   17       -3.611243   1.000000
   18       -3.504526   1.000000
   19       -1.282418   0.000000
   20       -0.989038   0.000000
   21       -0.693963   0.000000
   22       -0.622862   0.000000
 
  0.2564103E+00  0.0000000E+00  0.0000000E+00  0.8333333E-02
    1      -16.389507   1.000000
    2      -16.347145   1.000000
    3      -15.768337   1.000000
    4      -15.713319   1.000000
    5       -7.623807   1.000000
    6       -7.404650   1.000000
    7       -6.672797   1.000000
    8       -6.592168   1.000000
    9       -6.452796   1.000000
   10       -6.303916   1.000000
   11       -4.993244   1.000000
   12       -4.981479   1.000000
   13       -4.450881   1.000000
   14       -4.360657   1.000000
   15       -4.348429   1.000000
   16       -4.067253   1.000000
   17       -3.657703   1.000000
   18       -3.561244   1.000000
   19       -1.292653   0.000000
   20       -0.998271   0.000000
   21       -0.737321   0.000000
   22       -0.698441   0.000000
 
  0.2692308E+00  0.0000000E+00  0.0000000E+00  0.8333333E-02
    1      -16.322676   1.000000
    2      -16.280429   1.000000
    3      -15.729341   1.000000
    4      -15.675214   1.000000
    5       -7.597261   1.000000
    6       -7.402517   1.000000
    7       -6.762946   1.000000
    8       -6.656691   1.000000
    9       -6.548952   1.000000
   10       -6.411312   1.000000
   11       -5.054610   1.000000
   12       -5.042692   1.000000
   13       -4.505609   1.000000
   14       -4.303334   1.000000
   15       -4.289932   1.000000
   16       -4.123174   1.000000
   17       -3.701576   1.000000
   18       -3.612896   1.000000
   19       -1.293780   0.000000
   20       -1.001568   0.000000
   21       -0.780604   0.000000
   22       -0.743626   0.000000
 
  0.2820513E+00  0.0000000E+00  0.0000000E+00  0.8333333E-02
    1      -16.255030   1.000000
    2      -16.212908   1.000000
    3      -15.690013   1.000000
    4      -15.636798   1.000000
    5       -7.590147   1.000000
    6       -7.425985   1.000000
    7       -6.837066   1.000000
    8       -6.700250   1.000000
    9       -6.643569   1.000000
   10       -6.515192   1.000000
   11       -5.113858   1.000000
   12       -5.101837   1.000000
   13       -4.558754   1.000000
   14       -4.246618   1.000000
   15       -4.232222   1.000000
   16       -4.177728   1.000000
   17       -3.741243   1.000000
   18       -3.657964   1.000000
   19       -1.286803   0.000000
   20       -0.999763   0.000000
   21       -0.818790   0.000000
   22       -0.782713   0.000000
 
  0.2948718E+00  0.0000000E+00  0.0000000E+00  0.8333333E-02
    1      -16.186969   1.000000
    2      -16.144998   1.000000
    3      -15.650614   1.000000
    4      -15.598320   1.000000
    5       -7.606961   1.000000
    6       -7.474802   1.000000
    7       -6.893620   1.000000
    8       -6.733259   1.000000
    9       -6.730428   1.000000
   10       -6.607981   1.000000
   11       -5.170800   1.000000
   12       -5.158661   1.000000
   13       -4.609556   1.000000
   14       -4.231373   1.000000
   15       -4.191071   1.000000
   16       -4.174633   1.000000
   17       -3.775228   1.000000
   18       -3.695158   1.000000
   19       -1.272796   0.000000
   20       -0.993836   0.000000
   21       -0.853296   0.000000
   22       -0.817903   0.000000
 
  0.3076923E+00  0.0000000E+00  0.0000000E+00  0.8333333E-02
    1      -16.118939   1.000000
    2      -16.077135   1.000000
    3      -15.611416   1.000000
    4      -15.560046   1.000000
    5       -7.648487   1.000000
    6       -7.543901   1.000000
    7       -6.940566   1.000000
    8       -6.808740   1.000000
    9       -6.779842   1.000000
   10       -6.661736   1.000000
   11       -5.225217   1.000000
   12       -5.212915   1.000000
   13       -4.657501   1.000000
   14       -4.281508   1.000000
   15       -4.137161   1.000000
   16       -4.119597   1.000000
   17       -3.802288   1.000000
   18       -3.723384   1.000000
   19       -1.252776   0.000000
   20       -0.984903   0.000000
   21       -0.883958   0.000000
   22       -0.848603   0.000000
 
  0.3205128E+00  0.0000000E+00  0.0000000E+00  0.8333333E-02
    1      -16.051411   1.000000
    2      -16.009788   1.000000
    3      -15.572677   1.000000
    4      -15.522236   1.000000
    5       -7.710698   1.000000
    6       -7.626447   1.000000
    7       -6.998998   1.000000
    8       -6.864257   1.000000
    9       -6.852170   1.000000
   10       -6.666892   1.000000
   11       -5.276885   1.000000
   12       -5.264453   1.000000
   13       -4.702239   1.000000
   14       -4.328878   1.000000
   15       -4.085311   1.000000
   16       -4.066363   1.000000
   17       -3.821467   1.000000
   18       -3.741895   1.000000
   19       -1.227777   0.000000
   20       -0.974597   0.000000
   21       -0.910530   0.000000
   22       -0.873724   0.000000
 
  0.3333333E+00  0.0000000E+00  0.0000000E+00  0.8333333E-02
    1      -15.984895   1.000000
    2      -15.943453   1.000000
    3      -15.534708   1.000000
    4      -15.485187   1.000000
    5       -7.787096   1.000000
    6       -7.716456   1.000000
    7       -7.075597   1.000000
    8       -6.957953   1.000000
    9       -6.862487   1.000000
   10       -6.654319   1.000000
   11       -5.325652   1.000000
   12       -5.313091   1.000000
   13       -4.743573   1.000000
   14       -4.373034   1.000000
   15       -4.036005   1.000000
   16       -4.015519   1.000000
   17       -3.832176   1.000000
   18       -3.750298   1.000000
   19       -1.198831   0.000000
   20       -0.965955   0.000000
   21       -0.933016   0.000000
   22       -0.890820   0.000000
 
  0.3461538E+00  0.0000000E+00  0.0000000E+00  0.8333333E-02
    1      -15.919919   1.000000
    2      -15.878660   1.000000
    3      -15.497801   1.000000
    4      -15.449186   1.000000
    5       -7.871450   1.000000
    6       -7.809494   1.000000
    7       -7.158930   1.000000
    8       -7.051064   1.000000
    9       -6.856199   1.000000
   10       -6.637222   1.000000
   11       -5.371351   1.000000
   12       -5.358666   1.000000
   13       -4.781387   1.000000
   14       -4.413758   1.000000
   15       -3.989601   1.000000
   16       -3.967445   1.000000
   17       -3.834237   1.000000
   18       -3.748685   1.000000
   19       -1.166986   0.000000
   20       -0.963913   0.000000
   21       -0.951263   0.000000
   22       -0.895563   0.000000
 
  0.3589744E+00  0.0000000E+00  0.0000000E+00  0.8333333E-02
    1      -15.857043   1.000000
    2      -15.815969   1.000000
    3      -15.462259   1.000000
    4      -15.414540   1.000000
    5       -7.958971   1.000000
    6       -7.902428   1.000000
    7       -7.242154   1.000000
    8       -7.140770   1.000000
    9       -6.843587   1.000000
   10       -6.620182   1.000000
   11       -5.413841   1.000000
   12       -5.401072   1.000000
   13       -4.815657   1.000000
   14       -4.450950   1.000000
   15       -3.946445   1.000000
   16       -3.922460   1.000000
   17       -3.827874   1.000000
   18       -3.737618   1.000000
   19       -1.133384   0.000000
   20       -0.969752   0.000000
   21       -0.965080   0.000000
   22       -0.887370   0.000000
 
  0.3717949E+00  0.0000000E+00  0.0000000E+00  0.8333333E-02
    1      -15.796837   1.000000
    2      -15.755954   1.000000
    3      -15.428419   1.000000
    4      -15.381555   1.000000
    5       -8.046182   1.000000
    6       -7.992966   1.000000
    7       -7.322380   1.000000
    8       -7.225717   1.000000
    9       -6.829421   1.000000
   10       -6.605194   1.000000
   11       -5.453020   1.000000
   12       -5.440149   1.000000
   13       -4.846426   1.000000
   14       -4.484568   1.000000
   15       -3.906740   1.000000
   16       -3.880815   1.000000
   17       -3.813820   1.000000
   18       -3.718170   1.000000
   19       -1.099504   0.000000
   20       -0.978708   0.000000
   21       -0.973899   0.000000
   22       -0.871804   0.000000
 
  0.3846154E+00  0.0000000E+00  0.0000000E+00  0.8333333E-02
    1      -15.739909   1.000000
    2      -15.699216   1.000000
    3      -15.396581   1.000000
    4      -15.350535   1.000000
    5       -8.130576   1.000000
    6       -8.079357   1.000000
    7       -7.398061   1.000000
    8       -7.305020   1.000000
    9       -6.816010   1.000000
   10       -6.593082   1.000000
   11       -5.488762   1.000000
   12       -5.475796   1.000000
   13       -4.873762   1.000000
   14       -4.514640   1.000000
   15       -3.870559   1.000000
   16       -3.842672   1.000000
   17       -3.793353   1.000000
   18       -3.691779   1.000000
   19       -1.068057   0.000000
   20       -0.987276   0.000000
   21       -0.976210   0.000000
   22       -0.853122   0.000000
 
  0.3974359E+00  0.0000000E+00  0.0000000E+00  0.8333333E-02
    1      -15.686857   1.000000
    2      -15.646342   1.000000
    3      -15.367043   1.000000
    4      -15.321786   1.000000
    5       -8.210263   1.000000
    6       -8.160178   1.000000
    7       -7.468110   1.000000
    8       -7.377912   1.000000
    9       -6.804413   1.000000
   10       -6.583991   1.000000
   11       -5.520956   1.000000
   12       -5.507932   1.000000
   13       -4.897753   1.000000
   14       -4.541206   1.000000
   15       -3.837814   1.000000
   16       -3.808170   1.000000
   17       -3.768141   1.000000
   18       -3.660193   1.000000
   19       -1.043825   0.000000
   20       -0.994196   0.000000
   21       -0.968412   0.000000
   22       -0.833300   0.000000
 
  0.4102564E+00  0.0000000E+00  0.0000000E+00  0.8333333E-02
    1      -15.638282   1.000000
    2      -15.597941   1.000000
    3      -15.340131   1.000000
    4      -15.295591   1.000000
    5       -8.283755   1.000000
    6       -8.234266   1.000000
    7       -7.531756   1.000000
    8       -7.443765   1.000000
    9       -6.795013   1.000000
   10       -6.577708   1.000000
   11       -5.549549   1.000000
   12       -5.536442   1.000000
   13       -4.918540   1.000000
   14       -4.564343   1.000000
   15       -3.808480   1.000000
   16       -3.777484   1.000000
   17       -3.739969   1.000000
   18       -3.625375   1.000000
   19       -1.030475   0.000000
   20       -0.999314   0.000000
   21       -0.948010   0.000000
   22       -0.813544   0.000000
 
  0.4230769E+00  0.0000000E+00  0.0000000E+00  0.8333333E-02
    1      -15.594780   1.000000
    2      -15.554587   1.000000
    3      -15.316132   1.000000
    4      -15.272240   1.000000
    5       -8.349822   1.000000
    6       -8.300596   1.000000
    7       -7.588270   1.000000
    8       -7.502007   1.000000
    9       -6.787795   1.000000
   10       -6.573788   1.000000
   11       -5.574481   1.000000
   12       -5.561314   1.000000
   13       -4.936234   1.000000
   14       -4.584145   1.000000
   15       -3.782763   1.000000
   16       -3.750770   1.000000
   17       -3.710605   1.000000
   18       -3.589399   1.000000
   19       -1.024631   0.000000
   20       -1.002811   0.000000
   21       -0.919962   0.000000
   22       -0.794573   0.000000
 
  0.4358974E+00  0.0000000E+00  0.0000000E+00  0.8333333E-02
    1      -15.556897   1.000000
    2      -15.516829   1.000000
    3      -15.295312   1.000000
    4      -15.251987   1.000000
    5       -8.407445   1.000000
    6       -8.358270   1.000000
    7       -7.637082   1.000000
    8       -7.552157   1.000000
    9       -6.782528   1.000000
   10       -6.571697   1.000000
   11       -5.595694   1.000000
   12       -5.582454   1.000000
   13       -4.950970   1.000000
   14       -4.600706   1.000000
   15       -3.760879   1.000000
   16       -3.728124   1.000000
   17       -3.681741   1.000000
   18       -3.554362   1.000000
   19       -1.021595   0.000000
   20       -1.004923   0.000000
   21       -0.890341   0.000000
   22       -0.777080   0.000000
 
  0.4487179E+00  0.0000000E+00  0.0000000E+00  0.8333333E-02
    1      -15.525142   1.000000
    2      -15.485177   1.000000
    3      -15.277913   1.000000
    4      -15.235073   1.000000
    5       -8.455778   1.000000
    6       -8.406542   1.000000
    7       -7.677700   1.000000
    8       -7.593793   1.000000
    9       -6.778871   1.000000
   10       -6.570868   1.000000
   11       -5.613105   1.000000
   12       -5.599821   1.000000
   13       -4.962853   1.000000
   14       -4.614129   1.000000
   15       -3.742986   1.000000
   16       -3.709610   1.000000
   17       -3.655095   1.000000
   18       -3.522323   1.000000
   19       -1.019438   0.000000
   20       -1.006051   0.000000
   21       -0.862630   0.000000
   22       -0.761691   0.000000
 
  0.4615385E+00  0.0000000E+00  0.0000000E+00  0.8333333E-02
    1      -15.499947   1.000000
    2      -15.460063   1.000000
    3      -15.264138   1.000000
    4      -15.221690   1.000000
    5       -8.494105   1.000000
    6       -8.444765   1.000000
    7       -7.709709   1.000000
    8       -7.626542   1.000000
    9       -6.776468   1.000000
   10       -6.570800   1.000000
   11       -5.626682   1.000000
   12       -5.613367   1.000000
   13       -4.971981   1.000000
   14       -4.624473   1.000000
   15       -3.729117   1.000000
   16       -3.695228   1.000000
   17       -3.632333   1.000000
   18       -3.495171   1.000000
   19       -1.017687   0.000000
   20       -1.006469   0.000000
   21       -0.838955   0.000000
   22       -0.748961   0.000000
 
  0.4743590E+00  0.0000000E+00  0.0000000E+00  0.8333333E-02
    1      -15.481677   1.000000
    2      -15.441857   1.000000
    3      -15.254177   1.000000
    4      -15.212015   1.000000
    5       -8.521882   1.000000
    6       -8.472442   1.000000
    7       -7.732818   1.000000
    8       -7.650142   1.000000
    9       -6.775001   1.000000
   10       -6.571080   1.000000
   11       -5.636400   1.000000
   12       -5.623065   1.000000
   13       -4.978446   1.000000
   14       -4.631805   1.000000
   15       -3.719256   1.000000
   16       -3.684977   1.000000